/*--------------------------------*- C++ -*----------------------------------*\
  =========                 |
  \\      /  F ield         | OpenFOAM: The Open Source CFD Toolbox
   \\    /   O peration     | Website:  https://openfoam.org
    \\  /    A nd           | Version:  7
     \\/     M anipulation  |
\*---------------------------------------------------------------------------*/
FoamFile
{
    version     2.0;
    format      ascii;
    class       volScalarField;
    location    "120000";
    object      C;
}
// * * * * * * * * * * * * * * * * * * * * * * * * * * * * * * * * * * * * * //

dimensions      [0 0 0 0 0 0 0];

internalField   nonuniform List<scalar> 
200
(
-7.07051e-49
3.58977e-46
-1.74302e-43
8.11975e-41
-3.62976e-38
1.55947e-35
-6.46159e-33
2.59864e-30
-1.02567e-27
4.04917e-25
-1.65314e-22
7.43388e-20
-4.23077e-17
4.81692e-14
6.76782e-11
1.85802e-08
2.02384e-06
9.93376e-05
0.00216053
0.0186027
-1.60513e-50
8.18739e-48
-3.99246e-45
1.86666e-42
-8.36631e-40
3.59767e-37
-1.48788e-34
5.94586e-32
-2.31501e-29
8.90681e-27
-3.46988e-24
1.43075e-21
-6.8327e-19
4.80646e-16
8.87355e-12
3.51193e-09
4.94882e-07
3.12364e-05
0.000928679
0.0123831
1.02577e-50
-5.27156e-48
2.58703e-45
-1.21568e-42
5.46713e-40
-2.35368e-37
9.71493e-35
-3.85722e-32
1.48219e-29
-5.57076e-27
2.08511e-24
-8.02015e-22
3.35997e-19
-1.73378e-16
1.57869e-13
2.36397e-10
6.21693e-08
6.52056e-06
0.000321842
0.00756834
3.36254e-52
-1.61463e-49
7.30782e-47
-3.11518e-44
1.24296e-41
-4.60152e-39
1.55861e-36
-4.70386e-34
1.18652e-31
-1.95993e-29
-2.36574e-27
4.5342e-24
-3.16326e-21
1.93578e-18
-1.32938e-15
1.52962e-12
1.76384e-09
4.8596e-07
5.8712e-05
0.00355393
-3.7504e-52
1.98321e-49
-9.96655e-47
4.76712e-44
-2.16511e-41
9.31461e-39
-3.78646e-36
1.45084e-33
-5.22766e-31
1.76763e-28
-5.59983e-26
1.66057e-23
-4.60894e-21
1.19759e-18
-2.90598e-16
6.42492e-14
-9.16154e-12
9.40002e-09
1.17255e-06
0.00033609
-2.50048e-51
1.38062e-48
-7.24347e-46
3.61492e-43
-1.711e-40
7.65429e-38
-3.22337e-35
1.27172e-32
-4.67376e-30
1.58907e-27
-4.95659e-25
1.40386e-22
-3.56518e-20
7.99325e-18
-1.55256e-15
2.55421e-13
-3.46756e-11
3.78174e-09
-3.02691e-07
2.34203e-05
-1.20484e-51
6.91752e-49
-3.77108e-46
1.95309e-43
-9.57547e-41
4.42435e-38
-1.91603e-35
7.72436e-33
-2.87444e-30
9.7703e-28
-2.99415e-25
8.14127e-23
-1.92627e-20
3.87503e-18
-6.45113e-16
8.61958e-14
-8.93129e-12
6.894e-10
-3.73766e-08
1.2537e-06
-1.80574e-52
1.07393e-49
-6.06122e-47
3.24694e-44
-1.64411e-41
7.82798e-39
-3.48127e-36
1.43401e-33
-5.41412e-31
1.84914e-28
-5.62164e-26
1.49167e-23
-3.37461e-21
6.33319e-19
-9.55599e-17
1.11899e-14
-9.76556e-13
6.04009e-11
-2.44718e-09
5.29978e-08
-1.12053e-53
6.86835e-51
-3.99483e-48
2.20449e-45
-1.14906e-42
5.62442e-40
-2.5662e-37
1.08115e-34
-4.15642e-32
1.43678e-29
-4.38588e-27
1.15685e-24
-2.56985e-22
4.66731e-20
-6.69993e-18
7.31417e-16
-5.80154e-14
3.15014e-12
-1.06329e-10
1.75292e-09
-2.99786e-55
1.87379e-52
-1.11155e-49
6.25641e-47
-3.32586e-44
1.65973e-41
-7.71508e-39
3.30758e-36
-1.29162e-33
4.52368e-31
-1.39436e-28
3.69788e-26
-8.21664e-24
1.48365e-21
-2.10265e-19
2.2473e-17
-1.72623e-15
8.92758e-14
-2.78454e-12
3.96617e-11
)
;

boundaryField
{
    x0
    {
        type            fixedValue;
        value           uniform 0;
    }
    x1
    {
        type            inletOutlet;
        inletValue      uniform 0.0357;
        value           nonuniform List<scalar> 10(0.0357 0.0357 0.0357 0.0357 0.00033609 2.34203e-05 1.2537e-06 5.29978e-08 1.75292e-09 3.96617e-11);
    }
    y0
    {
        type            zeroGradient;
    }
    y1
    {
        type            zeroGradient;
    }
    z0
    {
        type            empty;
    }
    z1
    {
        type            empty;
    }
}


// ************************************************************************* //
