/*--------------------------------*- C++ -*----------------------------------*\
  =========                 |
  \\      /  F ield         | OpenFOAM: The Open Source CFD Toolbox
   \\    /   O peration     | Website:  https://openfoam.org
    \\  /    A nd           | Version:  7
     \\/     M anipulation  |
\*---------------------------------------------------------------------------*/
FoamFile
{
    version     2.0;
    format      ascii;
    class       volScalarField;
    location    "120000";
    object      C_0;
}
// * * * * * * * * * * * * * * * * * * * * * * * * * * * * * * * * * * * * * //

dimensions      [0 0 0 0 0 0 0];

internalField   nonuniform List<scalar> 
200
(
-7.00062e-49
3.55604e-46
-1.7275e-43
8.05142e-41
-3.601e-38
1.54788e-35
-6.41675e-33
2.58188e-30
-1.01956e-27
4.02704e-25
-1.64492e-22
7.40055e-20
-4.21386e-17
4.79992e-14
6.74757e-11
1.85342e-08
2.01986e-06
9.91946e-05
0.00215859
0.018596
-1.58844e-50
8.10624e-48
-3.95484e-45
1.84999e-42
-8.29565e-40
3.56904e-37
-1.47677e-34
5.90437e-32
-2.29999e-29
8.85334e-27
-3.45074e-24
1.42354e-21
-6.80154e-19
4.78676e-16
8.84646e-12
3.50303e-09
4.93883e-07
3.11894e-05
0.000927767
0.0123776
1.01551e-50
-5.22137e-48
2.56365e-45
-1.20529e-42
5.42302e-40
-2.33584e-37
9.64596e-35
-3.8317e-32
1.4731e-29
-5.53927e-27
2.07432e-24
-7.98249e-22
3.34579e-19
-1.72727e-16
1.57348e-13
2.35771e-10
6.20384e-08
6.51027e-06
0.000321502
0.00756441
3.3299e-52
-1.59979e-49
7.24454e-47
-3.08989e-44
1.23356e-41
-4.56941e-39
1.54872e-36
-4.67749e-34
1.18108e-31
-1.95569e-29
-2.32866e-27
4.50394e-24
-3.14657e-21
1.92715e-18
-1.3243e-15
1.52461e-12
1.75953e-09
4.85093e-07
5.8642e-05
0.00355168
-3.71131e-52
1.96351e-49
-9.87246e-47
4.72447e-44
-2.14681e-41
9.2405e-39
-3.75822e-36
1.44075e-33
-5.19389e-31
1.7571e-28
-5.56928e-26
1.65235e-23
-4.58842e-21
1.19286e-18
-2.89597e-16
6.40616e-14
-9.14331e-12
9.37905e-09
1.17048e-06
0.000335733
-2.47331e-51
1.36629e-48
-7.17185e-46
3.58095e-43
-1.69576e-40
7.58986e-38
-3.19783e-35
1.26227e-32
-4.64132e-30
1.57883e-27
-4.92707e-25
1.39619e-22
-3.54747e-20
7.95749e-18
-1.54638e-15
2.54531e-13
-3.4572e-11
3.77231e-09
-3.02092e-07
2.33845e-05
-1.19116e-51
6.84237e-49
-3.73196e-46
1.93379e-43
-9.48552e-41
4.38496e-38
-1.89991e-35
7.66317e-33
-2.85308e-30
9.70253e-28
-2.97485e-25
8.09282e-23
-1.91576e-20
3.85579e-18
-6.4223e-16
8.58534e-14
-8.90023e-12
6.87344e-10
-3.72836e-08
1.25119e-06
-1.78437e-52
1.06174e-49
-5.99539e-47
3.21326e-44
-1.62787e-41
7.75447e-39
-3.45028e-36
1.42195e-33
-5.37125e-31
1.83541e-28
-5.58266e-26
1.48207e-23
-3.35454e-21
6.29866e-19
-9.50861e-17
1.114e-14
-9.72682e-13
6.01911e-11
-2.4399e-09
5.28664e-08
-1.10672e-53
6.78706e-51
-3.9495e-48
2.18055e-45
-1.13714e-42
5.56886e-40
-2.54211e-37
1.07153e-34
-4.12148e-32
1.42541e-29
-4.35333e-27
1.14883e-24
-2.55331e-22
4.63958e-20
-6.66344e-18
7.27796e-16
-5.77569e-14
3.13767e-12
-1.05961e-10
1.74774e-09
-2.95945e-55
1.85069e-52
-1.09839e-49
6.1854e-47
-3.28974e-44
1.64252e-41
-7.63885e-39
3.27653e-36
-1.28013e-33
4.48565e-31
-1.38333e-28
3.67045e-26
-8.15973e-24
1.47411e-21
-2.09017e-19
2.23508e-17
-1.7177e-15
8.8879e-14
-2.77356e-12
3.95259e-11
)
;

boundaryField
{
    x0
    {
        type            fixedValue;
        value           uniform 0;
    }
    x1
    {
        type            inletOutlet;
        inletValue      uniform 0.0357;
        value           nonuniform List<scalar> 10(0.0357 0.0357 0.0357 0.0357 0.000335733 2.33845e-05 1.25119e-06 5.28664e-08 1.74774e-09 3.95259e-11);
    }
    y0
    {
        type            zeroGradient;
    }
    y1
    {
        type            zeroGradient;
    }
    z0
    {
        type            empty;
    }
    z1
    {
        type            empty;
    }
}


// ************************************************************************* //
