/*--------------------------------*- C++ -*----------------------------------*\
  =========                 |
  \\      /  F ield         | OpenFOAM: The Open Source CFD Toolbox
   \\    /   O peration     | Website:  https://openfoam.org
    \\  /    A nd           | Version:  7
     \\/     M anipulation  |
\*---------------------------------------------------------------------------*/
FoamFile
{
    version     2.0;
    format      ascii;
    class       surfaceScalarField;
    location    "120000";
    object      phi;
}
// * * * * * * * * * * * * * * * * * * * * * * * * * * * * * * * * * * * * * //

dimensions      [0 3 -1 0 0 0 0];

internalField   nonuniform List<scalar> 
370
(
6.5615e-06
3.85044e-08
6.51922e-06
4.22752e-08
6.46903e-06
5.01868e-08
6.40602e-06
6.30156e-08
6.324e-06
8.20219e-08
6.21492e-06
1.09075e-07
6.06808e-06
1.46843e-07
5.86901e-06
1.99066e-07
5.59806e-06
2.70947e-07
5.22833e-06
3.69733e-07
4.72276e-06
5.05572e-07
4.02988e-06
6.92877e-07
3.07724e-06
9.52644e-07
1.76043e-06
1.31681e-06
-7.70144e-08
1.83744e-06
-2.68554e-06
2.60853e-06
-6.50914e-06
3.8236e-06
-1.24169e-05
5.90776e-06
-2.15778e-05
9.16093e-06
8.31008e-06
6.56527e-06
7.32379e-08
6.52713e-06
8.04097e-08
6.48186e-06
9.54563e-08
6.42502e-06
1.19854e-07
6.35105e-06
1.55997e-07
6.25269e-06
2.07436e-07
6.1203e-06
2.79233e-07
5.94089e-06
3.78472e-07
5.69685e-06
5.1499e-07
5.36417e-06
7.02414e-07
4.91006e-06
9.59678e-07
4.28965e-06
1.31329e-06
3.44141e-06
1.80089e-06
2.28105e-06
2.47717e-06
6.94082e-07
3.42441e-06
-1.4696e-06
4.77221e-06
-4.38022e-06
6.73422e-06
-8.12913e-06
9.65667e-06
-1.26681e-05
1.36999e-05
1.38515e-05
6.57244e-06
1.008e-07
6.54218e-06
1.10669e-07
6.50626e-06
1.31375e-07
6.46117e-06
1.64947e-07
6.40249e-06
2.14675e-07
6.32449e-06
2.85438e-07
6.21954e-06
3.84179e-07
6.07741e-06
5.20601e-07
5.88427e-06
7.08127e-07
5.62143e-06
9.65255e-07
5.26368e-06
1.31744e-06
4.77725e-06
1.79972e-06
4.11768e-06
2.46045e-06
3.2283e-06
3.36655e-06
2.04188e-06
4.61083e-06
4.92595e-07
6.3215e-06
-1.44477e-06
8.67158e-06
-3.66185e-06
1.18737e-05
-5.97407e-06
1.60121e-05
1.77693e-05
6.58231e-06
1.18492e-07
6.56288e-06
1.30092e-07
6.53983e-06
1.54428e-07
6.5109e-06
1.93883e-07
6.47325e-06
2.5232e-07
6.42323e-06
3.35461e-07
6.35596e-06
4.51446e-07
6.26494e-06
6.11625e-07
6.1414e-06
8.31662e-07
5.97362e-06
1.13304e-06
5.74596e-06
1.5451e-06
5.43798e-06
2.10769e-06
5.02379e-06
2.87465e-06
4.47257e-06
3.91777e-06
3.75256e-06
5.33084e-06
2.8427e-06
7.23136e-06
1.75982e-06
9.75446e-06
6.07143e-07
1.30264e-05
-4.59356e-07
1.70786e-05
2.05414e-05
6.59391e-06
1.24584e-07
6.58722e-06
1.36779e-07
6.57929e-06
1.62362e-07
6.56933e-06
2.03837e-07
6.55639e-06
2.6526e-07
6.53921e-06
3.52641e-07
6.51614e-06
4.74517e-07
6.48498e-06
6.4279e-07
6.44278e-06
8.73856e-07
6.38567e-06
1.19015e-06
6.30855e-06
1.62221e-06
6.20493e-06
2.21131e-06
6.06691e-06
3.01267e-06
5.88564e-06
4.09903e-06
5.65308e-06
5.5634e-06
5.36579e-06
7.51866e-06
5.03195e-06
1.00883e-05
4.68011e-06
1.33783e-05
4.34311e-06
1.74156e-05
2.19401e-05
6.6061e-06
1.18482e-07
6.6128e-06
1.30078e-07
6.62076e-06
1.54405e-07
6.63076e-06
1.93842e-07
6.64377e-06
2.52245e-07
6.66109e-06
3.35323e-07
6.68441e-06
4.51193e-07
6.71604e-06
6.11163e-07
6.75908e-06
8.30817e-07
6.81773e-06
1.1315e-06
6.89765e-06
1.5423e-06
7.0063e-06
2.10266e-06
7.15326e-06
2.86571e-06
7.35001e-06
3.90228e-06
7.60834e-06
5.30507e-06
7.93544e-06
7.19156e-06
8.32192e-06
9.70181e-06
8.71778e-06
1.29824e-05
8.99294e-06
1.71405e-05
2.214e-05
6.6177e-06
1.00783e-07
6.63713e-06
1.10646e-07
6.6602e-06
1.31337e-07
6.68916e-06
1.6488e-07
6.72685e-06
2.14554e-07
6.77696e-06
2.85215e-07
6.84438e-06
3.8377e-07
6.9357e-06
5.1985e-07
7.05976e-06
7.0675e-07
7.22853e-06
9.62732e-07
7.45801e-06
1.31282e-06
7.76935e-06
1.79131e-06
8.18983e-06
2.44524e-06
8.7528e-06
3.33931e-06
9.49484e-06
4.56302e-06
1.04457e-05
6.24071e-06
1.16025e-05
8.54499e-06
1.28757e-05
1.17092e-05
1.40012e-05
1.6015e-05
2.16651e-05
6.62756e-06
7.32215e-08
6.65782e-06
8.0387e-08
6.69374e-06
9.54187e-08
6.73883e-06
1.19787e-07
6.79751e-06
1.55875e-07
6.87551e-06
2.07212e-07
6.98046e-06
2.78822e-07
7.12259e-06
3.77717e-07
7.31574e-06
5.13601e-07
7.57862e-06
6.99853e-07
7.9365e-06
9.54949e-07
8.42328e-06
1.30453e-06
9.0839e-06
1.78461e-06
9.97651e-06
2.44671e-06
1.11725e-05
3.367e-06
1.275e-05
4.66327e-06
1.47667e-05
6.52823e-06
1.71815e-05
9.29443e-06
1.96518e-05
1.35447e-05
2.0192e-05
6.63473e-06
3.84942e-08
6.67285e-06
4.22612e-08
6.71811e-06
5.01635e-08
6.77492e-06
6.29742e-08
6.84885e-06
8.19465e-08
6.94712e-06
1.08937e-07
7.07936e-06
1.46589e-07
7.25848e-06
1.98597e-07
7.502e-06
2.70082e-07
7.83372e-06
3.6813e-07
8.28608e-06
5.02587e-07
8.90335e-06
6.87267e-07
9.74601e-06
9.41948e-07
1.08968e-05
1.29592e-06
1.24688e-05
1.79501e-06
1.46149e-05
2.51713e-06
1.75329e-05
3.61023e-06
2.14318e-05
5.39555e-06
2.6299e-05
8.67756e-06
1.57699e-05
6.63849e-06
6.68076e-06
6.73092e-06
6.79389e-06
6.87584e-06
6.98478e-06
7.13137e-06
7.32996e-06
7.60004e-06
7.96818e-06
8.47076e-06
9.15803e-06
1.01e-05
1.13959e-05
1.31909e-05
1.5708e-05
1.93183e-05
2.47138e-05
3.33914e-05
)
;

boundaryField
{
    x0
    {
        type            calculated;
        value           nonuniform List<scalar> 10(-6.6e-06 -6.6e-06 -6.6e-06 -6.6e-06 -6.6e-06 -6.6e-06 -6.6e-06 -6.6e-06 -6.6e-06 -6.6e-06);
    }
    x1
    {
        type            calculated;
        value           nonuniform List<scalar> 10(-2.98879e-05 -1.82095e-05 -9.89184e-06 -3.23154e-06 2.94449e-06 8.79306e-06 1.4476e-05 2.11249e-05 3.0721e-05 4.91613e-05);
    }
    y0
    {
        type            calculated;
        value           uniform 0;
    }
    y1
    {
        type            calculated;
        value           uniform 0;
    }
    z0
    {
        type            empty;
        value           nonuniform 0();
    }
    z1
    {
        type            empty;
        value           nonuniform 0();
    }
}


// ************************************************************************* //
