/*--------------------------------*- C++ -*----------------------------------*\
  =========                 |
  \\      /  F ield         | OpenFOAM: The Open Source CFD Toolbox
   \\    /   O peration     | Website:  https://openfoam.org
    \\  /    A nd           | Version:  7
     \\/     M anipulation  |
\*---------------------------------------------------------------------------*/
FoamFile
{
    version     2.0;
    format      ascii;
    class       volVectorField;
    location    "120000";
    object      Utheta;
}
// * * * * * * * * * * * * * * * * * * * * * * * * * * * * * * * * * * * * * //

dimensions      [0 1 -1 0 0 0 0];

internalField   nonuniform List<vector> 
200
(
(6.58075e-05 3.85044e-07 0)
(6.54036e-05 4.22752e-07 0)
(6.49413e-05 5.01868e-07 0)
(6.43753e-05 6.30156e-07 0)
(6.36501e-05 8.20219e-07 0)
(6.26946e-05 1.09075e-06 0)
(6.1415e-05 1.46843e-06 0)
(5.96854e-05 1.99066e-06 0)
(5.73354e-05 2.70947e-06 0)
(5.4132e-05 3.69733e-06 0)
(4.97554e-05 5.05572e-06 0)
(4.37632e-05 6.92877e-06 0)
(3.55356e-05 9.52644e-06 0)
(2.41883e-05 1.31681e-05 0)
(8.41706e-06 1.83744e-05 0)
(-1.38128e-05 2.60853e-05 0)
(-4.59734e-05 3.8236e-05 0)
(-9.46302e-05 5.90776e-05 0)
(-0.000169974 9.16093e-05 0)
(-0.000257329 8.31008e-05 0)
(6.58263e-05 5.58711e-07 0)
(6.5462e-05 6.13424e-07 0)
(6.5045e-05 7.28216e-07 0)
(6.45344e-05 9.14347e-07 0)
(6.38804e-05 1.19009e-06 0)
(6.30187e-05 1.58255e-06 0)
(6.18649e-05 2.13038e-06 0)
(6.0306e-05 2.88769e-06 0)
(5.81887e-05 3.92969e-06 0)
(5.53051e-05 5.36074e-06 0)
(5.13712e-05 7.32625e-06 0)
(4.59986e-05 1.00308e-05 0)
(3.86553e-05 1.37677e-05 0)
(2.86123e-05 1.89699e-05 0)
(1.48757e-05 2.63093e-05 0)
(-3.87761e-06 3.69037e-05 0)
(-2.92491e-05 5.27891e-05 0)
(-6.25468e-05 7.78221e-05 0)
(-0.000103986 0.000114304 0)
(-0.000154388 0.000110808 0)
(6.58622e-05 8.70188e-07 0)
(6.55731e-05 9.55394e-07 0)
(6.52422e-05 1.13416e-06 0)
(6.48371e-05 1.424e-06 0)
(6.43183e-05 1.85336e-06 0)
(6.36349e-05 2.46437e-06 0)
(6.27201e-05 3.31706e-06 0)
(6.14848e-05 4.49537e-06 0)
(5.98084e-05 6.11559e-06 0)
(5.75285e-05 8.33835e-06 0)
(5.44255e-05 1.13856e-05 0)
(5.02046e-05 1.5565e-05 0)
(4.44747e-05 2.13067e-05 0)
(3.67299e-05 2.92186e-05 0)
(2.63509e-05 4.01762e-05 0)
(1.26724e-05 5.54686e-05 0)
(-4.76088e-06 7.7029e-05 0)
(-2.55331e-05 0.000107652 0)
(-4.81796e-05 0.00014856 0)
(-7.93295e-05 0.000158104 0)
(6.59115e-05 1.09646e-06 0)
(6.5726e-05 1.20381e-06 0)
(6.55136e-05 1.42902e-06 0)
(6.52536e-05 1.79415e-06 0)
(6.49207e-05 2.33498e-06 0)
(6.44824e-05 3.10449e-06 0)
(6.38959e-05 4.17812e-06 0)
(6.31045e-05 5.66113e-06 0)
(6.20317e-05 7.69895e-06 0)
(6.05751e-05 1.04915e-05 0)
(5.85979e-05 1.43127e-05 0)
(5.59197e-05 1.95371e-05 0)
(5.23088e-05 2.66755e-05 0)
(4.74818e-05 3.64216e-05 0)
(4.11257e-05 4.97083e-05 0)
(3.29763e-05 6.77643e-05 0)
(2.30126e-05 9.21302e-05 0)
(1.18348e-05 0.000124501 0)
(7.38935e-07 0.000165454 0)
(-1.84545e-05 0.000191553 0)
(6.59695e-05 1.21538e-06 0)
(6.59056e-05 1.33436e-06 0)
(6.58325e-05 1.58395e-06 0)
(6.57431e-05 1.9886e-06 0)
(6.56286e-05 2.5879e-06 0)
(6.5478e-05 3.44051e-06 0)
(6.52768e-05 4.62981e-06 0)
(6.50056e-05 6.27207e-06 0)
(6.46388e-05 8.52759e-06 0)
(6.41423e-05 1.1616e-05 0)
(6.34711e-05 1.58366e-05 0)
(6.25674e-05 2.1595e-05 0)
(6.13592e-05 2.94366e-05 0)
(5.97627e-05 4.0084e-05 0)
(5.76936e-05 5.44712e-05 0)
(5.50944e-05 7.37501e-05 0)
(5.19887e-05 9.92138e-05 0)
(4.85603e-05 0.000132023 0)
(4.51161e-05 0.000172471 0)
(3.6438e-05 0.000212408 0)
(6.60305e-05 1.21533e-06 0)
(6.60945e-05 1.33429e-06 0)
(6.61678e-05 1.58384e-06 0)
(6.62576e-05 1.98839e-06 0)
(6.63726e-05 2.58753e-06 0)
(6.65243e-05 3.43982e-06 0)
(6.67275e-05 4.62855e-06 0)
(6.70023e-05 6.26976e-06 0)
(6.73756e-05 8.52336e-06 0)
(6.78841e-05 1.16083e-05 0)
(6.85769e-05 1.58226e-05 0)
(6.95197e-05 2.15698e-05 0)
(7.07978e-05 2.93919e-05 0)
(7.25164e-05 4.00065e-05 0)
(7.47918e-05 5.43423e-05 0)
(7.77189e-05 7.35511e-05 0)
(8.12868e-05 9.89506e-05 0)
(8.51985e-05 0.000131803 0)
(8.85536e-05 0.00017278 0)
(8.893e-05 0.0002204 0)
(6.60885e-05 1.09633e-06 0)
(6.62741e-05 1.20362e-06 0)
(6.64866e-05 1.42871e-06 0)
(6.67468e-05 1.79361e-06 0)
(6.708e-05 2.33399e-06 0)
(6.7519e-05 3.10269e-06 0)
(6.81067e-05 4.17482e-06 0)
(6.89004e-05 5.65506e-06 0)
(6.99773e-05 7.68783e-06 0)
(7.14415e-05 1.04712e-05 0)
(7.34327e-05 1.42756e-05 0)
(7.61368e-05 1.94699e-05 0)
(7.97959e-05 2.65547e-05 0)
(8.47131e-05 3.6208e-05 0)
(9.12382e-05 4.93404e-05 0)
(9.97026e-05 6.71614e-05 0)
(0.000110241 9.1234e-05 0)
(0.000122391 0.000123458 0)
(0.000134384 0.000165777 0)
(0.000142386 0.000219025 0)
(6.61378e-05 8.70024e-07 0)
(6.64269e-05 9.55167e-07 0)
(6.67578e-05 1.13378e-06 0)
(6.71629e-05 1.42333e-06 0)
(6.76817e-05 1.85214e-06 0)
(6.83651e-05 2.46213e-06 0)
(6.92799e-05 3.31296e-06 0)
(7.05153e-05 4.48784e-06 0)
(7.21917e-05 6.10175e-06 0)
(7.44718e-05 8.31292e-06 0)
(7.75756e-05 1.13389e-05 0)
(8.17989e-05 1.54792e-05 0)
(8.75359e-05 2.11492e-05 0)
(9.53021e-05 2.89301e-05 0)
(0.000105745 3.96501e-05 0)
(0.000119612 5.45199e-05 0)
(0.000137583 7.53661e-05 0)
(0.000159741 0.000105018 0)
(0.000184166 0.000147799 0)
(0.000203883 0.000209285 0)
(6.61736e-05 5.58579e-07 0)
(6.65379e-05 6.13241e-07 0)
(6.69548e-05 7.27911e-07 0)
(6.74651e-05 9.13806e-07 0)
(6.81189e-05 1.18911e-06 0)
(6.89799e-05 1.58075e-06 0)
(7.01324e-05 2.12706e-06 0)
(7.16892e-05 2.88157e-06 0)
(7.38024e-05 3.91841e-06 0)
(7.66786e-05 5.33992e-06 0)
(8.0599e-05 7.28768e-06 0)
(8.59471e-05 9.95901e-06 0)
(9.32468e-05 1.36328e-05 0)
(0.000103214 1.87131e-05 0)
(0.000116828 2.58101e-05 0)
(0.000135419 3.5902e-05 0)
(0.000160739 5.06923e-05 0)
(0.000194824 7.34499e-05 0)
(0.000238654 0.000111112 0)
(0.0002851 0.000179809 0)
(6.61925e-05 3.84942e-07 0)
(6.65962e-05 4.22612e-07 0)
(6.70584e-05 5.01635e-07 0)
(6.76241e-05 6.29742e-07 0)
(6.83487e-05 8.19465e-07 0)
(6.93031e-05 1.08937e-06 0)
(7.05807e-05 1.46589e-06 0)
(7.23066e-05 1.98597e-06 0)
(7.465e-05 2.70082e-06 0)
(7.78411e-05 3.6813e-06 0)
(8.21947e-05 5.02587e-06 0)
(8.8144e-05 6.87267e-06 0)
(9.629e-05 9.41948e-06 0)
(0.000107479 1.29592e-05 0)
(0.000122934 1.79501e-05 0)
(0.000144495 2.51713e-05 0)
(0.000175131 3.61023e-05 0)
(0.00022016 5.39555e-05 0)
(0.000290526 8.67756e-05 0)
(0.000412763 0.000157699 0)
)
;

boundaryField
{
    x0
    {
        type            fixedValue;
        value           uniform (6.6e-05 0 0);
    }
    x1
    {
        type            zeroGradient;
    }
    y0
    {
        type            zeroGradient;
    }
    y1
    {
        type            zeroGradient;
    }
    z0
    {
        type            empty;
    }
    z1
    {
        type            empty;
    }
}


// ************************************************************************* //
