/*--------------------------------*- C++ -*----------------------------------*\
  =========                 |
  \\      /  F ield         | OpenFOAM: The Open Source CFD Toolbox
   \\    /   O peration     | Website:  https://openfoam.org
    \\  /    A nd           | Version:  7
     \\/     M anipulation  |
\*---------------------------------------------------------------------------*/
FoamFile
{
    version     2.0;
    format      ascii;
    class       volScalarField;
    location    "60000";
    object      C;
}
// * * * * * * * * * * * * * * * * * * * * * * * * * * * * * * * * * * * * * //

dimensions      [0 0 0 0 0 0 0];

internalField   nonuniform List<scalar> 
200
(
-7.55924e-55
7.58716e-52
-7.29981e-49
6.74073e-46
-5.97512e-43
5.09191e-40
-4.1859e-37
3.34053e-34
-2.61649e-31
2.04949e-28
-1.65927e-25
1.47756e-22
-1.659e-19
3.66499e-16
1.06906e-12
5.9459e-10
1.31368e-07
1.31846e-05
0.000595939
0.0107577
-8.28159e-57
8.33844e-54
-8.04368e-51
7.44098e-48
-6.59918e-45
5.6152e-42
-4.59446e-39
3.63114e-36
-2.79414e-33
2.12211e-30
-1.62865e-27
1.31813e-24
-1.22665e-21
1.65006e-18
1.30988e-13
1.05718e-10
3.02293e-08
3.87536e-06
0.000234662
0.00646774
9.57822e-57
-9.67087e-54
9.34109e-51
-8.63775e-48
7.64177e-45
-6.46919e-42
5.24749e-39
-4.09118e-36
3.0837e-33
-2.27011e-30
1.661e-27
-1.24549e-24
1.01319e-21
-1.00897e-18
1.75279e-15
6.28272e-12
3.4601e-09
7.46888e-07
7.5269e-05
0.00365109
4.37836e-58
-4.27651e-55
3.9701e-52
-3.50081e-49
2.92424e-46
-2.3073e-43
1.71444e-40
-1.19548e-37
7.78765e-35
-4.70557e-32
2.59956e-29
-1.26311e-26
4.62025e-24
2.52768e-22
-4.33525e-18
1.47995e-14
6.35943e-11
4.37307e-08
1.18218e-05
0.00151649
-1.94259e-58
2.03282e-55
-2.02709e-52
1.92564e-49
-1.73864e-46
1.4885e-43
-1.20542e-40
9.2113e-38
-6.62612e-35
4.47701e-32
-2.83585e-29
1.68172e-26
-9.33169e-24
4.84707e-21
-2.35866e-18
1.07055e-15
-4.15284e-13
4.49618e-10
1.0769e-07
7.77215e-05
-6.81251e-58
7.42941e-55
-7.7158e-52
7.62557e-49
-7.15063e-46
6.34015e-43
-5.29396e-40
4.14293e-37
-3.0213e-34
2.0391e-31
-1.26297e-28
7.1055e-26
-3.58554e-23
1.5979e-20
-6.17165e-18
2.01997e-15
-5.45764e-13
1.18231e-10
-1.91262e-08
2.81877e-06
-1.6651e-58
1.8876e-55
-2.03609e-52
2.08744e-49
-2.02672e-46
1.85528e-43
-1.59247e-40
1.27298e-37
-9.39688e-35
6.33863e-32
-3.85659e-29
2.08285e-26
-9.79297e-24
3.91653e-21
-1.29682e-18
3.44746e-16
-7.10795e-14
1.09131e-11
-1.17549e-09
7.75707e-08
-1.26469e-59
1.48464e-56
-1.65739e-53
1.75692e-50
-1.76122e-47
1.66085e-44
-1.46356e-41
1.19513e-38
-8.9491e-36
6.06477e-33
-3.66021e-30
1.92898e-27
-8.67152e-25
3.23529e-22
-9.70876e-20
2.26177e-17
-3.9275e-15
4.8332e-13
-3.89546e-11
1.68034e-09
-3.97933e-61
4.81315e-58
-5.53548e-55
6.04291e-52
-6.23394e-49
6.04206e-46
-5.46124e-43
4.56027e-40
-3.4765e-37
2.38425e-34
-1.44472e-31
7.5682e-29
-3.34069e-26
1.20621e-23
-3.44392e-21
7.48098e-19
-1.18122e-16
1.27754e-14
-8.60224e-13
2.85006e-11
-5.37459e-63
6.6275e-60
-7.77215e-57
8.65237e-54
-9.10181e-51
8.99283e-48
-8.28061e-45
7.03607e-42
-5.4487e-39
3.78652e-36
-2.31725e-33
1.22086e-30
-5.3925e-28
1.93679e-25
-5.4633e-23
1.16304e-20
-1.781e-18
1.83897e-16
-1.14902e-14
3.32101e-13
)
;

boundaryField
{
    x0
    {
        type            fixedValue;
        value           uniform 0;
    }
    x1
    {
        type            inletOutlet;
        inletValue      uniform 0.0357;
        value           nonuniform List<scalar> 10(0.0357 0.0357 0.0357 0.0357 7.77215e-05 2.81877e-06 7.75707e-08 1.68034e-09 2.85006e-11 3.32101e-13);
    }
    y0
    {
        type            zeroGradient;
    }
    y1
    {
        type            zeroGradient;
    }
    z0
    {
        type            empty;
    }
    z1
    {
        type            empty;
    }
}


// ************************************************************************* //
