/*--------------------------------*- C++ -*----------------------------------*\
  =========                 |
  \\      /  F ield         | OpenFOAM: The Open Source CFD Toolbox
   \\    /   O peration     | Website:  https://openfoam.org
    \\  /    A nd           | Version:  7
     \\/     M anipulation  |
\*---------------------------------------------------------------------------*/
FoamFile
{
    version     2.0;
    format      ascii;
    class       volScalarField;
    location    "60000";
    object      C_0;
}
// * * * * * * * * * * * * * * * * * * * * * * * * * * * * * * * * * * * * * //

dimensions      [0 0 0 0 0 0 0];

internalField   nonuniform List<scalar> 
200
(
-7.41099e-55
7.44566e-52
-7.17071e-49
6.62803e-46
-5.88101e-43
5.01665e-40
-4.1281e-37
3.29766e-34
-2.58546e-31
2.02718e-28
-1.64283e-25
1.46436e-22
-1.64581e-19
3.63937e-16
1.06268e-12
5.91641e-10
1.30849e-07
1.31459e-05
0.000594806
0.0107486
-8.11052e-57
8.17418e-54
-7.89296e-51
7.30872e-48
-6.48825e-45
5.52624e-42
-4.52611e-39
3.58065e-36
-2.75799e-33
2.09671e-30
-1.61073e-27
1.3049e-24
-1.21551e-21
1.63662e-18
1.30197e-13
1.05186e-10
3.01078e-08
3.8637e-06
0.000234193
0.00646147
9.38896e-57
-9.489e-54
9.17437e-51
-8.49186e-48
7.52003e-45
-6.37233e-42
5.17397e-39
-4.03779e-36
3.04642e-33
-2.24485e-30
1.64411e-27
-1.23401e-24
1.00482e-21
-1.00159e-18
1.74163e-15
6.25029e-12
3.44585e-09
7.44578e-07
7.51128e-05
0.00364725
4.2934e-58
-4.19775e-55
3.90092e-52
-3.44333e-49
2.87918e-46
-2.27411e-43
1.69155e-40
-1.1808e-37
7.70055e-35
-4.65843e-32
2.57688e-29
-1.25414e-26
4.60134e-24
2.36023e-22
-4.29375e-18
1.46972e-14
6.32964e-11
4.35831e-08
1.17953e-05
0.00151469
-1.90257e-58
1.99288e-55
-1.98922e-52
1.89153e-49
-1.70952e-46
1.46502e-43
-1.18758e-40
9.08393e-38
-6.54096e-35
4.42386e-32
-2.80496e-29
1.66506e-26
-9.24843e-24
4.8086e-21
-2.34229e-18
1.0642e-15
-4.13324e-13
4.47685e-10
1.07328e-07
7.75589e-05
-6.66581e-58
7.27654e-55
-7.56446e-52
7.48334e-49
-7.02415e-46
6.23413e-43
-5.21057e-40
4.08169e-37
-2.97957e-34
2.01292e-31
-1.24799e-28
7.02815e-26
-3.55002e-23
1.58363e-20
-6.12262e-18
2.0059e-15
-5.42503e-13
1.17641e-10
-1.90499e-08
2.81019e-06
-1.62766e-58
1.84695e-55
-1.9942e-52
2.0465e-49
-1.98893e-46
1.82247e-43
-1.56585e-40
1.25293e-37
-9.25799e-35
6.25111e-32
-3.8071e-29
2.05815e-26
-9.68641e-24
3.87775e-21
-1.28526e-18
3.4201e-16
-7.05852e-14
1.08479e-11
-1.16963e-09
7.72597e-08
-1.23505e-59
1.45125e-56
-1.62171e-53
1.72078e-50
-1.72669e-47
1.62988e-44
-1.43768e-41
1.17515e-38
-8.80817e-36
5.97515e-33
-3.60968e-30
1.90423e-27
-8.56872e-25
3.2001e-22
-9.61267e-20
2.2416e-17
-3.89634e-15
4.79961e-13
-3.87223e-11
1.67198e-09
-3.88226e-61
4.70031e-58
-5.41101e-55
5.91282e-52
-6.10571e-49
5.92359e-46
-5.35942e-43
4.47965e-40
-3.4184e-37
2.34671e-34
-1.42337e-31
7.46376e-29
-3.29785e-26
1.19192e-23
-3.40648e-21
7.40699e-19
-1.1707e-16
1.26741e-14
-8.54255e-13
2.83313e-11
-5.23834e-63
6.46579e-60
-7.58993e-57
8.45779e-54
-8.90585e-51
8.80784e-48
-8.11824e-45
6.90488e-42
-5.35237e-39
3.72324e-36
-2.28077e-33
1.20283e-30
-5.3181e-28
1.91196e-25
-5.3986e-23
1.1504e-20
-1.7634e-18
1.82261e-16
-1.13994e-14
3.29808e-13
)
;

boundaryField
{
    x0
    {
        type            fixedValue;
        value           uniform 0;
    }
    x1
    {
        type            inletOutlet;
        inletValue      uniform 0.0357;
        value           nonuniform List<scalar> 10(0.0357 0.0357 0.0357 0.0357 7.75589e-05 2.81019e-06 7.72597e-08 1.67198e-09 2.83313e-11 3.29808e-13);
    }
    y0
    {
        type            zeroGradient;
    }
    y1
    {
        type            zeroGradient;
    }
    z0
    {
        type            empty;
    }
    z1
    {
        type            empty;
    }
}


// ************************************************************************* //
