/*--------------------------------*- C++ -*----------------------------------*\
  =========                 |
  \\      /  F ield         | OpenFOAM: The Open Source CFD Toolbox
   \\    /   O peration     | Website:  https://openfoam.org
    \\  /    A nd           | Version:  7
     \\/     M anipulation  |
\*---------------------------------------------------------------------------*/
FoamFile
{
    version     2.0;
    format      ascii;
    class       surfaceScalarField;
    location    "60000";
    object      phi;
}
// * * * * * * * * * * * * * * * * * * * * * * * * * * * * * * * * * * * * * //

dimensions      [0 3 -1 0 0 0 0];

internalField   nonuniform List<scalar> 
370
(
6.56159e-06
3.84083e-08
6.51942e-06
4.21689e-08
6.46936e-06
5.00588e-08
6.40651e-06
6.28514e-08
6.32471e-06
8.1802e-08
6.21594e-06
1.08772e-07
6.06952e-06
1.46414e-07
5.87108e-06
1.98446e-07
5.60105e-06
2.7003e-07
5.23271e-06
3.68339e-07
4.72933e-06
5.0338e-07
4.04004e-06
6.89288e-07
3.09357e-06
9.46471e-07
1.78804e-06
1.30553e-06
-2.72119e-08
1.81525e-06
-2.58813e-06
2.56092e-06
-6.29934e-06
3.71122e-06
-1.19465e-05
5.6472e-06
-2.10661e-05
9.11953e-06
1.16508e-05
6.56535e-06
7.3056e-08
6.52731e-06
8.02086e-08
6.48216e-06
9.52147e-08
6.42546e-06
1.19545e-07
6.35168e-06
1.55585e-07
6.25358e-06
2.0687e-07
6.12156e-06
2.7844e-07
5.94266e-06
3.77339e-07
5.69936e-06
5.13336e-07
5.36775e-06
6.99945e-07
4.91524e-06
9.55893e-07
4.29722e-06
1.3073e-06
3.45263e-06
1.79107e-06
2.29777e-06
2.46039e-06
7.18451e-07
3.39457e-06
-1.43777e-06
4.71714e-06
-4.35747e-06
6.63091e-06
-8.19001e-06
9.47974e-06
-1.28014e-05
1.37309e-05
1.6935e-05
6.5725e-06
1.00551e-07
6.54232e-06
1.10395e-07
6.50649e-06
1.31047e-07
6.4615e-06
1.64529e-07
6.40297e-06
2.14122e-07
6.32515e-06
2.84685e-07
6.22045e-06
3.83136e-07
6.07866e-06
5.19133e-07
5.88597e-06
7.0603e-07
5.6237e-06
9.62212e-07
5.26665e-06
1.31294e-06
4.78099e-06
1.79296e-06
4.12196e-06
2.45009e-06
3.23194e-06
3.35041e-06
2.04103e-06
4.58548e-06
4.76005e-07
6.28216e-06
-1.50703e-06
8.61394e-06
-3.83222e-06
1.18049e-05
-6.16747e-06
1.60661e-05
1.98191e-05
6.58235e-06
1.18202e-07
6.56297e-06
1.29773e-07
6.53997e-06
1.54048e-07
6.5111e-06
1.93402e-07
6.47353e-06
2.51689e-07
6.4236e-06
3.34612e-07
6.35645e-06
4.50287e-07
6.26556e-06
6.10026e-07
6.14215e-06
8.29439e-07
5.97443e-06
1.12993e-06
5.74666e-06
1.54071e-06
5.43812e-06
2.1015e-06
5.02228e-06
2.86594e-06
4.467e-06
3.90569e-06
3.73771e-06
5.31477e-06
2.80778e-06
7.21209e-06
1.68424e-06
9.73749e-06
4.59119e-07
1.30301e-05
-6.38251e-07
1.71635e-05
2.15038e-05
6.59392e-06
1.24283e-07
6.58724e-06
1.36448e-07
6.57932e-06
1.61969e-07
6.56938e-06
2.03343e-07
6.55645e-06
2.64619e-07
6.53928e-06
3.51788e-07
6.51619e-06
4.73373e-07
6.48497e-06
6.41246e-07
6.44264e-06
8.71771e-07
6.38522e-06
1.18735e-06
6.30746e-06
1.61847e-06
6.20255e-06
2.20641e-06
6.06203e-06
3.00646e-06
5.87608e-06
4.09164e-06
5.63503e-06
5.55583e-06
5.33318e-06
7.51393e-06
4.97682e-06
1.00938e-05
4.59672e-06
1.34102e-05
4.25521e-06
1.7505e-05
2.22242e-05
6.60608e-06
1.18198e-07
6.61277e-06
1.29767e-07
6.6207e-06
1.54037e-07
6.63066e-06
1.93383e-07
6.64362e-06
2.51654e-07
6.66086e-06
3.34549e-07
6.68406e-06
4.50171e-07
6.7155e-06
6.09814e-07
6.75822e-06
8.29051e-07
6.81634e-06
1.12922e-06
6.89539e-06
1.53943e-06
7.0026e-06
2.0992e-06
7.14722e-06
2.86184e-06
7.34027e-06
3.89859e-06
7.59312e-06
5.30298e-06
7.91311e-06
7.19395e-06
8.29313e-06
9.71382e-06
8.6916e-06
1.30117e-05
9.00254e-06
1.71941e-05
2.22166e-05
6.61765e-06
1.00543e-07
6.63704e-06
1.10384e-07
6.66004e-06
1.31029e-07
6.68893e-06
1.64498e-07
6.72652e-06
2.14066e-07
6.77648e-06
2.84583e-07
6.84371e-06
3.82948e-07
6.93473e-06
5.18788e-07
7.05839e-06
7.05398e-07
7.22655e-06
9.61054e-07
7.45515e-06
1.31083e-06
7.76525e-06
1.7891e-06
8.18397e-06
2.44311e-06
8.74465e-06
3.33791e-06
9.48409e-06
4.56353e-06
1.0433e-05
6.24506e-06
1.1591e-05
8.55579e-06
1.2874e-05
1.17287e-05
1.40261e-05
1.6042e-05
2.16876e-05
6.6275e-06
7.30484e-08
6.65768e-06
8.01982e-08
6.69351e-06
9.51974e-08
6.7385e-06
1.19514e-07
6.79703e-06
1.55529e-07
6.87485e-06
2.06768e-07
6.97955e-06
2.78251e-07
7.12134e-06
3.76992e-07
7.31404e-06
5.12698e-07
7.57633e-06
6.98769e-07
7.93343e-06
9.53723e-07
8.41925e-06
1.30328e-06
9.07877e-06
1.78359e-06
9.97027e-06
2.44641e-06
1.11656e-05
3.36819e-06
1.27437e-05
4.66698e-06
1.4764e-05
6.53552e-06
1.71872e-05
9.30553e-06
1.96718e-05
1.35574e-05
2.01995e-05
6.63464e-06
3.84036e-08
6.67268e-06
4.21625e-08
6.71783e-06
5.00481e-08
6.77451e-06
6.28324e-08
6.84827e-06
8.17674e-08
6.94633e-06
1.08708e-07
7.07829e-06
1.46298e-07
7.25705e-06
1.98231e-07
7.50011e-06
2.69633e-07
7.83128e-06
3.67603e-07
8.28299e-06
5.0201e-07
8.89956e-06
6.86714e-07
9.74159e-06
9.41564e-07
1.08921e-05
1.29595e-06
1.24644e-05
1.79582e-06
1.46122e-05
2.51915e-06
1.7534e-05
3.61379e-06
2.1439e-05
5.40047e-06
2.63139e-05
8.68258e-06
1.57724e-05
6.6384e-06
6.68057e-06
6.73061e-06
6.79345e-06
6.87521e-06
6.98392e-06
7.13022e-06
7.32845e-06
7.59808e-06
7.96569e-06
8.4677e-06
9.15441e-06
1.0096e-05
1.13919e-05
1.31877e-05
1.57069e-05
1.93207e-05
2.47211e-05
3.34037e-05
)
;

boundaryField
{
    x0
    {
        type            calculated;
        value           nonuniform List<scalar> 10(-6.6e-06 -6.6e-06 -6.6e-06 -6.6e-06 -6.6e-06 -6.6e-06 -6.6e-06 -6.6e-06 -6.6e-06 -6.6e-06);
    }
    x1
    {
        type            calculated;
        value           nonuniform List<scalar> 10(-3.27169e-05 -1.80855e-05 -9.05156e-06 -2.32301e-06 3.53482e-06 9.01018e-06 1.45551e-05 2.11599e-05 3.07409e-05 4.91762e-05);
    }
    y0
    {
        type            calculated;
        value           uniform 0;
    }
    y1
    {
        type            calculated;
        value           uniform 0;
    }
    z0
    {
        type            empty;
        value           nonuniform 0();
    }
    z1
    {
        type            empty;
        value           nonuniform 0();
    }
}


// ************************************************************************* //
