/*--------------------------------*- C++ -*----------------------------------*\
  =========                 |
  \\      /  F ield         | OpenFOAM: The Open Source CFD Toolbox
   \\    /   O peration     | Website:  https://openfoam.org
    \\  /    A nd           | Version:  7
     \\/     M anipulation  |
\*---------------------------------------------------------------------------*/
FoamFile
{
    version     2.0;
    format      ascii;
    class       volVectorField;
    location    "60000";
    object      Utheta;
}
// * * * * * * * * * * * * * * * * * * * * * * * * * * * * * * * * * * * * * //

dimensions      [0 1 -1 0 0 0 0];

internalField   nonuniform List<vector> 
200
(
(6.5808e-05 3.84083e-07 0)
(6.54051e-05 4.21689e-07 0)
(6.49439e-05 5.00588e-07 0)
(6.43794e-05 6.28514e-07 0)
(6.36561e-05 8.1802e-07 0)
(6.27032e-05 1.08772e-06 0)
(6.14273e-05 1.46414e-06 0)
(5.9703e-05 1.98446e-06 0)
(5.73606e-05 2.7003e-06 0)
(5.41688e-05 3.68339e-06 0)
(4.98102e-05 5.0338e-06 0)
(4.38469e-05 6.89288e-06 0)
(3.56681e-05 9.46471e-06 0)
(2.44081e-05 1.30553e-05 0)
(8.80415e-06 1.81525e-05 0)
(-1.30767e-05 2.56092e-05 0)
(-4.44374e-05 3.71122e-05 0)
(-9.12294e-05 5.6472e-05 0)
(-0.000165063 9.11953e-05 0)
(-0.000268915 0.000116508 0)
(6.58268e-05 5.57321e-07 0)
(6.54633e-05 6.11888e-07 0)
(6.50473e-05 7.26367e-07 0)
(6.45381e-05 9.11982e-07 0)
(6.38857e-05 1.18693e-06 0)
(6.30263e-05 1.57821e-06 0)
(6.18757e-05 2.12427e-06 0)
(6.03211e-05 2.87892e-06 0)
(5.82101e-05 3.91683e-06 0)
(5.53355e-05 5.34142e-06 0)
(5.14149e-05 7.29636e-06 0)
(4.60623e-05 9.98295e-06 0)
(3.87493e-05 1.36877e-05 0)
(2.8752e-05 1.88296e-05 0)
(1.50811e-05 2.60491e-05 0)
(-3.59661e-06 3.63903e-05 0)
(-2.89762e-05 5.17106e-05 0)
(-6.27374e-05 7.56347e-05 0)
(-0.000104957 0.000114252 0)
(-0.000154435 0.000142929 0)
(6.58625e-05 8.68035e-07 0)
(6.55741e-05 9.53017e-07 0)
(6.5244e-05 1.13131e-06 0)
(6.48399e-05 1.42037e-06 0)
(6.43223e-05 1.84853e-06 0)
(6.36406e-05 2.45778e-06 0)
(6.2728e-05 3.30788e-06 0)
(6.14956e-05 4.48236e-06 0)
(5.98231e-05 6.09683e-06 0)
(5.75483e-05 8.31078e-06 0)
(5.44517e-05 1.13442e-05 0)
(5.02382e-05 1.55013e-05 0)
(4.45147e-05 2.12058e-05 0)
(3.67695e-05 2.9054e-05 0)
(2.63648e-05 3.99002e-05 0)
(1.25852e-05 5.49965e-05 0)
(-5.15512e-06 7.62242e-05 0)
(-2.66963e-05 0.000106423 0)
(-4.99984e-05 0.000148985 0)
(-7.60951e-05 0.00018377 0)
(6.59117e-05 1.09377e-06 0)
(6.57266e-05 1.20084e-06 0)
(6.55147e-05 1.42547e-06 0)
(6.52553e-05 1.78965e-06 0)
(6.49231e-05 2.32905e-06 0)
(6.44857e-05 3.09649e-06 0)
(6.39003e-05 4.16712e-06 0)
(6.311e-05 5.64579e-06 0)
(6.20385e-05 7.67734e-06 0)
(6.05829e-05 1.04607e-05 0)
(5.86055e-05 1.42683e-05 0)
(5.59239e-05 1.94723e-05 0)
(5.2302e-05 2.65802e-05 0)
(4.74464e-05 3.62805e-05 0)
(4.10236e-05 4.95013e-05 0)
(3.27275e-05 6.74713e-05 0)
(2.24601e-05 9.17571e-05 0)
(1.07168e-05 0.000124175 0)
(-8.95662e-07 0.000166148 0)
(-1.48063e-05 0.000206615 0)
(6.59696e-05 1.21242e-06 0)
(6.59058e-05 1.3311e-06 0)
(6.58328e-05 1.58008e-06 0)
(6.57435e-05 1.98373e-06 0)
(6.56292e-05 2.58154e-06 0)
(6.54786e-05 3.432e-06 0)
(6.52773e-05 4.6183e-06 0)
(6.50058e-05 6.25636e-06 0)
(6.4638e-05 8.50605e-06 0)
(6.41393e-05 1.15864e-05 0)
(6.34634e-05 1.57959e-05 0)
(6.255e-05 2.15396e-05 0)
(6.13229e-05 2.9362e-05 0)
(5.96906e-05 3.99867e-05 0)
(5.75555e-05 5.4353e-05 0)
(5.4841e-05 7.36301e-05 0)
(5.155e-05 9.91567e-05 0)
(4.78677e-05 0.000132201 0)
(4.42596e-05 0.000173343 0)
(3.89501e-05 0.00021864 0)
(6.60304e-05 1.2124e-06 0)
(6.60943e-05 1.33107e-06 0)
(6.61673e-05 1.58003e-06 0)
(6.62568e-05 1.98363e-06 0)
(6.63714e-05 2.58136e-06 0)
(6.65224e-05 3.43169e-06 0)
(6.67246e-05 4.61772e-06 0)
(6.69978e-05 6.2553e-06 0)
(6.73686e-05 8.50411e-06 0)
(6.78728e-05 1.15828e-05 0)
(6.85587e-05 1.57895e-05 0)
(6.949e-05 2.1528e-05 0)
(7.07491e-05 2.93415e-05 0)
(7.24374e-05 3.99512e-05 0)
(7.4667e-05 5.4294e-05 0)
(7.75311e-05 7.35394e-05 0)
(8.10312e-05 9.90383e-05 0)
(8.49237e-05 0.000132109 0)
(8.84707e-05 0.000173495 0)
(9.00636e-05 0.000222204 0)
(6.60883e-05 1.09371e-06 0)
(6.62735e-05 1.20076e-06 0)
(6.64854e-05 1.42533e-06 0)
(6.67449e-05 1.78941e-06 0)
(6.70772e-05 2.3286e-06 0)
(6.7515e-05 3.09566e-06 0)
(6.8101e-05 4.1656e-06 0)
(6.88922e-05 5.64301e-06 0)
(6.99656e-05 7.67224e-06 0)
(7.14247e-05 1.04514e-05 0)
(7.34085e-05 1.42513e-05 0)
(7.6102e-05 1.94415e-05 0)
(7.97461e-05 2.65248e-05 0)
(8.46431e-05 3.61825e-05 0)
(9.11437e-05 4.93325e-05 0)
(9.95854e-05 6.7195e-05 0)
(0.00011012 9.1348e-05 0)
(0.000122325 0.000123702 0)
(0.0001345 0.00016618 0)
(0.000142906 0.000219521 0)
(6.61375e-05 8.67959e-07 0)
(6.64259e-05 9.52913e-07 0)
(6.6756e-05 1.13113e-06 0)
(6.71601e-05 1.42006e-06 0)
(6.76777e-05 1.84797e-06 0)
(6.83594e-05 2.45675e-06 0)
(6.9272e-05 3.306e-06 0)
(7.05044e-05 4.4789e-06 0)
(7.21769e-05 6.09048e-06 0)
(7.44518e-05 8.29912e-06 0)
(7.75488e-05 1.13228e-05 0)
(8.17634e-05 1.54619e-05 0)
(8.74901e-05 2.11335e-05 0)
(9.52452e-05 2.89216e-05 0)
(0.000105679 3.96586e-05 0)
(0.000119547 5.45602e-05 0)
(0.000137538 7.54565e-05 0)
(0.000159756 0.000105171 0)
(0.000184295 0.000147997 0)
(0.000204158 0.000209436 0)
(6.61732e-05 5.5726e-07 0)
(6.65366e-05 6.11803e-07 0)
(6.69526e-05 7.26228e-07 0)
(6.74617e-05 9.11733e-07 0)
(6.81139e-05 1.18648e-06 0)
(6.8973e-05 1.57738e-06 0)
(7.01231e-05 2.12275e-06 0)
(7.16767e-05 2.87611e-06 0)
(7.37858e-05 3.91165e-06 0)
(7.6657e-05 5.33186e-06 0)
(8.05714e-05 7.27866e-06 0)
(8.59128e-05 9.94999e-06 0)
(9.32058e-05 1.36258e-05 0)
(0.000103168 1.87118e-05 0)
(0.000116782 2.582e-05 0)
(0.000135383 3.59306e-05 0)
(0.000160731 5.07465e-05 0)
(0.000194865 7.353e-05 0)
(0.000238765 0.0001112 0)
(0.000285274 0.00017986 0)
(6.6192e-05 3.84036e-07 0)
(6.65948e-05 4.21625e-07 0)
(6.70559e-05 5.00481e-07 0)
(6.76203e-05 6.28324e-07 0)
(6.83433e-05 8.17674e-07 0)
(6.92957e-05 1.08708e-06 0)
(7.05707e-05 1.46298e-06 0)
(7.22934e-05 1.98231e-06 0)
(7.46327e-05 2.69633e-06 0)
(7.78188e-05 3.67603e-06 0)
(8.21669e-05 5.0201e-06 0)
(8.81105e-05 6.86714e-06 0)
(9.62519e-05 9.41564e-06 0)
(0.000107439 1.29595e-05 0)
(0.000122898 1.79582e-05 0)
(0.000144473 2.51915e-05 0)
(0.000175138 3.61379e-05 0)
(0.000220209 5.40047e-05 0)
(0.000290624 8.68258e-05 0)
(0.000412899 0.000157724 0)
)
;

boundaryField
{
    x0
    {
        type            fixedValue;
        value           uniform (6.6e-05 0 0);
    }
    x1
    {
        type            zeroGradient;
    }
    y0
    {
        type            zeroGradient;
    }
    y1
    {
        type            zeroGradient;
    }
    z0
    {
        type            empty;
    }
    z1
    {
        type            empty;
    }
}


// ************************************************************************* //
