/*--------------------------------*- C++ -*----------------------------------*\
  =========                 |
  \\      /  F ield         | OpenFOAM: The Open Source CFD Toolbox
   \\    /   O peration     | Website:  https://openfoam.org
    \\  /    A nd           | Version:  7
     \\/     M anipulation  |
\*---------------------------------------------------------------------------*/
FoamFile
{
    version     2.0;
    format      ascii;
    class       volScalarField;
    location    "90000";
    object      C;
}
// * * * * * * * * * * * * * * * * * * * * * * * * * * * * * * * * * * * * * //

dimensions      [0 0 0 0 0 0 0];

internalField   nonuniform List<scalar> 
200
(
-2.33873e-51
1.57636e-48
-1.01724e-45
6.29856e-43
-3.74278e-40
2.13767e-37
-1.17753e-34
6.29575e-32
-3.30334e-29
1.73332e-26
-9.40222e-24
5.61297e-21
-4.23228e-18
6.32847e-15
1.20894e-11
4.45638e-09
6.52109e-07
4.31744e-05
0.00127668
0.0149807
-3.93224e-53
2.66099e-50
-1.72322e-47
1.06997e-44
-6.36842e-42
3.63644e-39
-1.99672e-36
1.05913e-33
-5.47148e-31
2.79139e-28
-1.44053e-25
7.85465e-23
-4.94362e-20
4.54377e-17
1.53449e-12
8.18091e-10
1.54902e-07
1.31429e-05
0.000526053
0.00951959
3.18287e-53
-2.16529e-50
1.40784e-47
-8.76361e-45
5.21978e-42
-2.97552e-39
1.62568e-36
-8.54028e-34
4.33977e-31
-2.15543e-28
1.06509e-25
-5.4014e-23
2.97779e-20
-2.01599e-17
2.39459e-14
5.18849e-11
1.86039e-08
2.6388e-06
0.000175501
0.00559888
1.22246e-54
-7.91006e-52
4.84615e-49
-2.80991e-46
1.53579e-43
-7.87437e-41
3.76314e-38
-1.66007e-35
6.64437e-33
-2.32255e-30
6.30215e-28
-5.22287e-26
-1.05828e-22
1.32299e-19
-1.40817e-16
2.29422e-13
4.36894e-10
1.76044e-07
2.98218e-05
0.00247743
-9.12518e-55
6.41083e-52
-4.28591e-49
2.72828e-46
-1.64985e-43
9.4553e-41
-5.12293e-38
2.61767e-35
-1.25845e-32
5.67992e-30
-2.4025e-27
9.51218e-25
-3.52384e-22
1.22172e-19
-3.96059e-17
1.18405e-14
-2.69504e-12
2.62629e-09
4.28881e-07
0.000182504
-4.68191e-54
3.43096e-51
-2.39154e-48
1.58591e-45
-9.9756e-43
5.93146e-40
-3.32042e-37
1.74162e-34
-8.51063e-32
3.84787e-29
-1.59619e-26
6.01305e-24
-2.03125e-21
6.05849e-19
-1.56571e-16
3.42785e-14
-6.19385e-12
8.98189e-10
-9.64423e-08
9.71885e-06
-1.70148e-54
1.29641e-51
-9.38827e-49
6.45996e-46
-4.20838e-43
2.58411e-40
-1.48741e-37
7.97107e-35
-3.9436e-32
1.78236e-29
-7.26392e-27
2.62705e-24
-8.26878e-22
2.2132e-19
-4.90312e-17
8.71902e-15
-1.2024e-12
1.23499e-10
-8.90433e-09
3.95273e-07
-1.92208e-55
1.5169e-52
-1.13716e-49
8.0925e-47
-5.4444e-44
3.44463e-41
-2.03596e-38
1.11479e-35
-5.59553e-33
2.54115e-30
-1.0274e-27
3.62616e-25
-1.09136e-22
2.72527e-20
-5.47229e-18
8.52846e-16
-9.90608e-14
8.15414e-12
-4.39626e-10
1.26772e-08
-8.99162e-57
7.31307e-54
-5.64924e-51
4.14108e-48
-2.86766e-45
1.86516e-42
-1.13097e-39
6.33349e-37
-3.23704e-34
1.48788e-31
-6.04044e-29
2.11936e-26
-6.26373e-24
1.5138e-21
-2.89214e-19
4.20268e-17
-4.43798e-15
3.20893e-13
-1.44339e-11
3.18266e-10
-1.80938e-58
1.50058e-55
-1.18221e-52
8.83887e-50
-6.24246e-47
4.1395e-44
-2.55736e-41
1.45743e-38
-7.56703e-36
3.52445e-33
-1.44505e-30
5.09882e-28
-1.50773e-25
3.62394e-23
-6.83828e-21
9.73414e-19
-9.96227e-17
6.86929e-15
-2.86127e-13
5.47766e-12
)
;

boundaryField
{
    x0
    {
        type            fixedValue;
        value           uniform 0;
    }
    x1
    {
        type            inletOutlet;
        inletValue      uniform 0.0357;
        value           nonuniform List<scalar> 10(0.0357 0.0357 0.0357 0.0357 0.000182504 9.71885e-06 3.95273e-07 1.26772e-08 3.18266e-10 5.47766e-12);
    }
    y0
    {
        type            zeroGradient;
    }
    y1
    {
        type            zeroGradient;
    }
    z0
    {
        type            empty;
    }
    z1
    {
        type            empty;
    }
}


// ************************************************************************* //
