/*--------------------------------*- C++ -*----------------------------------*\
  =========                 |
  \\      /  F ield         | OpenFOAM: The Open Source CFD Toolbox
   \\    /   O peration     | Website:  https://openfoam.org
    \\  /    A nd           | Version:  7
     \\/     M anipulation  |
\*---------------------------------------------------------------------------*/
FoamFile
{
    version     2.0;
    format      ascii;
    class       volScalarField;
    location    "90000";
    object      C_0;
}
// * * * * * * * * * * * * * * * * * * * * * * * * * * * * * * * * * * * * * //

dimensions      [0 0 0 0 0 0 0];

internalField   nonuniform List<scalar> 
200
(
-2.30799e-51
1.55666e-48
-1.00519e-45
6.22804e-43
-3.70331e-40
2.11652e-37
-1.16665e-34
6.24171e-32
-3.27714e-29
1.72071e-26
-9.33996e-24
5.57947e-21
-4.20977e-18
6.29882e-15
1.20413e-11
4.44165e-09
6.50396e-07
4.30907e-05
0.0012751
0.0149729
-3.87784e-53
2.62589e-50
-1.70161e-47
1.05725e-44
-6.29683e-42
3.59792e-39
-1.97687e-36
1.04929e-33
-5.42419e-31
2.76908e-28
-1.42995e-25
7.80201e-23
-4.91364e-20
4.51903e-17
1.52828e-12
8.15337e-10
1.54485e-07
1.31166e-05
0.000525358
0.00951367
3.1406e-53
-2.13793e-50
1.39095e-47
-8.66414e-45
5.16389e-42
-2.94558e-39
1.61037e-36
-8.46534e-34
4.30448e-31
-2.13928e-28
1.0578e-25
-5.36784e-23
2.96118e-20
-2.00601e-17
2.38421e-14
5.17038e-11
1.85521e-08
2.6333e-06
0.000175256
0.00559495
1.20663e-54
-7.81297e-52
4.78999e-49
-2.77929e-46
1.52014e-43
-7.79982e-41
3.73034e-38
-1.64692e-35
6.59764e-33
-2.30878e-30
6.27641e-28
-5.27359e-26
-1.04832e-22
1.3143e-19
-1.40068e-16
2.28408e-13
4.35494e-10
1.75635e-07
2.97756e-05
0.00247539
-8.99892e-55
6.32629e-52
-4.23218e-49
2.69585e-46
-1.63132e-43
9.35532e-41
-5.07213e-38
2.59343e-35
-1.24763e-32
5.63483e-30
-2.38502e-27
9.44928e-25
-3.50287e-22
1.21526e-19
-3.94229e-17
1.17939e-14
-2.68704e-12
2.6186e-09
4.27893e-07
0.000182247
-4.61428e-54
3.38362e-51
-2.36009e-48
1.56609e-45
-9.85739e-43
5.86504e-40
-3.2854e-37
1.72439e-34
-8.43199e-32
3.81483e-29
-1.58353e-26
5.9693e-24
-2.01781e-21
6.02237e-19
-1.5574e-16
3.41192e-14
-6.16916e-12
8.95199e-10
-9.61864e-08
9.69906e-06
-1.6758e-54
1.27769e-51
-9.25876e-49
6.37503e-46
-4.15579e-43
2.5535e-40
-1.47076e-37
7.88702e-35
-3.90459e-32
1.7659e-29
-7.20158e-27
2.60622e-24
-8.20865e-22
2.19856e-19
-4.87391e-17
8.67282e-15
-1.19682e-12
1.23007e-10
-8.87474e-09
3.94216e-07
-1.89184e-55
1.49401e-52
-1.12074e-49
7.98088e-47
-5.37284e-44
3.40159e-41
-2.01185e-38
1.10231e-35
-5.53655e-33
2.51602e-30
-1.01792e-27
3.59505e-25
-1.08271e-22
2.70547e-20
-5.43612e-18
8.4777e-16
-9.85364e-14
8.11635e-12
-4.37879e-10
1.26352e-08
-8.84437e-57
7.19801e-54
-5.56402e-51
4.08129e-48
-2.82812e-45
1.84065e-42
-1.11684e-39
6.2585e-37
-3.20082e-34
1.47221e-31
-5.98074e-29
2.0998e-26
-6.21003e-24
1.50181e-21
-2.87114e-19
4.17493e-17
-4.4116e-15
3.19197e-13
-1.43671e-11
3.17007e-10
-1.77858e-58
1.476e-55
-1.16361e-52
8.70551e-50
-6.15232e-47
4.08241e-44
-2.52375e-41
1.43922e-38
-7.47743e-36
3.48502e-33
-1.42982e-30
5.04844e-28
-1.49382e-25
3.59288e-23
-6.78417e-21
9.66353e-19
-9.89657e-17
6.82854e-15
-2.84619e-13
5.45252e-12
)
;

boundaryField
{
    x0
    {
        type            fixedValue;
        value           uniform 0;
    }
    x1
    {
        type            inletOutlet;
        inletValue      uniform 0.0357;
        value           nonuniform List<scalar> 10(0.0357 0.0357 0.0357 0.0357 0.000182247 9.69906e-06 3.94216e-07 1.26352e-08 3.17007e-10 5.45252e-12);
    }
    y0
    {
        type            zeroGradient;
    }
    y1
    {
        type            zeroGradient;
    }
    z0
    {
        type            empty;
    }
    z1
    {
        type            empty;
    }
}


// ************************************************************************* //
