/*--------------------------------*- C++ -*----------------------------------*\
  =========                 |
  \\      /  F ield         | OpenFOAM: The Open Source CFD Toolbox
   \\    /   O peration     | Website:  https://openfoam.org
    \\  /    A nd           | Version:  7
     \\/     M anipulation  |
\*---------------------------------------------------------------------------*/
FoamFile
{
    version     2.0;
    format      ascii;
    class       surfaceScalarField;
    location    "90000";
    object      phi;
}
// * * * * * * * * * * * * * * * * * * * * * * * * * * * * * * * * * * * * * //

dimensions      [0 3 -1 0 0 0 0];

internalField   nonuniform List<scalar> 
370
(
6.56155e-06
3.84545e-08
6.51933e-06
4.222e-08
6.46921e-06
5.01203e-08
6.40627e-06
6.29304e-08
6.32437e-06
8.19077e-08
6.21545e-06
1.08918e-07
6.06883e-06
1.46621e-07
5.87008e-06
1.98744e-07
5.59961e-06
2.70472e-07
5.2306e-06
3.6901e-07
4.72617e-06
5.04436e-07
4.03515e-06
6.91017e-07
3.08571e-06
9.49445e-07
1.77474e-06
1.31096e-06
-5.11899e-08
1.82593e-06
-2.63499e-06
2.5838e-06
-6.40021e-06
3.76523e-06
-1.21772e-05
5.777e-06
-2.13611e-05
9.18386e-06
9.88847e-06
6.56531e-06
7.31434e-08
6.52723e-06
8.03053e-08
6.48202e-06
9.53309e-08
6.42525e-06
1.19693e-07
6.35138e-06
1.55783e-07
6.25315e-06
2.07142e-07
6.12095e-06
2.78821e-07
5.94181e-06
3.77884e-07
5.69815e-06
5.14132e-07
5.36603e-06
7.01133e-07
4.91275e-06
9.57716e-07
4.29358e-06
1.31019e-06
3.44723e-06
1.7958e-06
2.28971e-06
2.46848e-06
7.06676e-07
3.40897e-06
-1.45327e-06
4.74375e-06
-4.36905e-06
6.681e-06
-8.15986e-06
9.56781e-06
-1.27163e-05
1.37403e-05
1.53592e-05
6.57247e-06
1.00671e-07
6.54225e-06
1.10527e-07
6.50638e-06
1.31204e-07
6.46134e-06
1.6473e-07
6.40274e-06
2.14388e-07
6.32483e-06
2.85047e-07
6.22001e-06
3.83638e-07
6.07806e-06
5.19839e-07
5.88515e-06
7.07039e-07
5.62261e-06
9.63676e-07
5.26522e-06
1.31511e-06
4.77919e-06
1.79621e-06
4.11991e-06
2.45508e-06
3.2302e-06
3.35819e-06
2.04146e-06
4.5977e-06
4.84045e-07
6.30116e-06
-1.47679e-06
8.64184e-06
-3.74766e-06
1.18387e-05
-6.05467e-06
1.60473e-05
1.88058e-05
6.58233e-06
1.18342e-07
6.56293e-06
1.29927e-07
6.5399e-06
1.54231e-07
6.511e-06
1.93633e-07
6.4734e-06
2.51992e-07
6.42342e-06
3.3502e-07
6.35622e-06
4.50844e-07
6.26526e-06
6.10795e-07
6.14179e-06
8.30508e-07
5.97404e-06
1.13143e-06
5.74633e-06
1.54282e-06
5.43806e-06
2.10448e-06
5.02302e-06
2.87013e-06
4.46971e-06
3.9115e-06
3.74491e-06
5.3225e-06
2.82473e-06
7.22134e-06
1.72102e-06
9.74555e-06
5.31782e-07
1.30279e-05
-5.43391e-07
1.71225e-05
2.10443e-05
6.59391e-06
1.24428e-07
6.58723e-06
1.36607e-07
6.57931e-06
1.62158e-07
6.56936e-06
2.03581e-07
6.55642e-06
2.64927e-07
6.53925e-06
3.52198e-07
6.51617e-06
4.73923e-07
6.48497e-06
6.41988e-07
6.44271e-06
8.72773e-07
6.38544e-06
1.1887e-06
6.30799e-06
1.62027e-06
6.2037e-06
2.20876e-06
6.06439e-06
3.00944e-06
5.8807e-06
4.09519e-06
5.64375e-06
5.55945e-06
5.34895e-06
7.51615e-06
5.00346e-06
1.0091e-05
4.63688e-06
1.33945e-05
4.29802e-06
1.74614e-05
2.20932e-05
6.60609e-06
1.18334e-07
6.61278e-06
1.29916e-07
6.62073e-06
1.54214e-07
6.63071e-06
1.93604e-07
6.64369e-06
2.51938e-07
6.66097e-06
3.34921e-07
6.68423e-06
4.50662e-07
6.71576e-06
6.10462e-07
6.75863e-06
8.299e-07
6.81701e-06
1.13032e-06
6.89648e-06
1.54081e-06
7.00438e-06
2.10086e-06
7.15013e-06
2.86369e-06
7.34496e-06
3.90035e-06
7.60045e-06
5.30396e-06
7.92384e-06
7.19276e-06
8.30691e-06
9.70798e-06
8.70387e-06
1.29975e-05
8.99692e-06
1.71683e-05
2.21817e-05
6.61768e-06
1.00659e-07
6.63708e-06
1.1051e-07
6.66012e-06
1.31177e-07
6.68904e-06
1.64682e-07
6.72668e-06
2.143e-07
6.77671e-06
2.84887e-07
6.84403e-06
3.83343e-07
6.9352e-06
5.19298e-07
7.05905e-06
7.06047e-07
7.2275e-06
9.61859e-07
7.45653e-06
1.31179e-06
7.76722e-06
1.79016e-06
8.18679e-06
2.44413e-06
8.74857e-06
3.33857e-06
9.48925e-06
4.56327e-06
1.04391e-05
6.24295e-06
1.15965e-05
8.55057e-06
1.28746e-05
1.17194e-05
1.40138e-05
1.60291e-05
2.16773e-05
6.62753e-06
7.31316e-08
6.65775e-06
8.02889e-08
6.69362e-06
9.53038e-08
6.73866e-06
1.19645e-07
6.79726e-06
1.55695e-07
6.87517e-06
2.06981e-07
6.97999e-06
2.78526e-07
7.12194e-06
3.77341e-07
7.31486e-06
5.13131e-07
7.57743e-06
6.99289e-07
7.9349e-06
9.54311e-07
8.42119e-06
1.30388e-06
9.08124e-06
1.78408e-06
9.97326e-06
2.44655e-06
1.11689e-05
3.36761e-06
1.27467e-05
4.66519e-06
1.47652e-05
6.53201e-06
1.71844e-05
9.30022e-06
1.96621e-05
1.35514e-05
2.0196e-05
6.63468e-06
3.84472e-08
6.67276e-06
4.22099e-08
6.71796e-06
5.01036e-08
6.77471e-06
6.29006e-08
6.84855e-06
8.18535e-08
6.94671e-06
1.08818e-07
7.0788e-06
1.46438e-07
7.25774e-06
1.98407e-07
7.50102e-06
2.69849e-07
7.83245e-06
3.67856e-07
8.28448e-06
5.02286e-07
8.90138e-06
6.86979e-07
9.74371e-06
9.41746e-07
1.08943e-05
1.29593e-06
1.24665e-05
1.79543e-06
1.46135e-05
2.51817e-06
1.75335e-05
3.61208e-06
2.14356e-05
5.39812e-06
2.63067e-05
8.68019e-06
1.57713e-05
6.63845e-06
6.68066e-06
6.73076e-06
6.79366e-06
6.87551e-06
6.98433e-06
7.13077e-06
7.32918e-06
7.59903e-06
7.96688e-06
8.46917e-06
9.15615e-06
1.00979e-05
1.13938e-05
1.31893e-05
1.57074e-05
1.93195e-05
2.47176e-05
3.33978e-05
)
;

boundaryField
{
    x0
    {
        type            calculated;
        value           nonuniform List<scalar> 10(-6.6e-06 -6.6e-06 -6.6e-06 -6.6e-06 -6.6e-06 -6.6e-06 -6.6e-06 -6.6e-06 -6.6e-06 -6.6e-06);
    }
    x1
    {
        type            calculated;
        value           nonuniform List<scalar> 10(-3.12495e-05 -1.8187e-05 -9.50128e-06 -2.78195e-06 3.24914e-06 8.90847e-06 1.45182e-05 2.11434e-05 3.07315e-05 4.91691e-05);
    }
    y0
    {
        type            calculated;
        value           uniform 0;
    }
    y1
    {
        type            calculated;
        value           uniform 0;
    }
    z0
    {
        type            empty;
        value           nonuniform 0();
    }
    z1
    {
        type            empty;
        value           nonuniform 0();
    }
}


// ************************************************************************* //
