/*--------------------------------*- C++ -*----------------------------------*\
  =========                 |
  \\      /  F ield         | OpenFOAM: The Open Source CFD Toolbox
   \\    /   O peration     | Website:  https://openfoam.org
    \\  /    A nd           | Version:  7
     \\/     M anipulation  |
\*---------------------------------------------------------------------------*/
FoamFile
{
    version     2.0;
    format      ascii;
    class       volVectorField;
    location    "90000";
    object      Utheta;
}
// * * * * * * * * * * * * * * * * * * * * * * * * * * * * * * * * * * * * * //

dimensions      [0 1 -1 0 0 0 0];

internalField   nonuniform List<vector> 
200
(
(6.58077e-05 3.84545e-07 0)
(6.54044e-05 4.222e-07 0)
(6.49427e-05 5.01203e-07 0)
(6.43774e-05 6.29304e-07 0)
(6.36532e-05 8.19077e-07 0)
(6.26991e-05 1.08918e-06 0)
(6.14214e-05 1.46621e-06 0)
(5.96946e-05 1.98744e-06 0)
(5.73485e-05 2.70472e-06 0)
(5.41511e-05 3.6901e-06 0)
(4.97839e-05 5.04436e-06 0)
(4.38066e-05 6.91017e-06 0)
(3.56043e-05 9.49445e-06 0)
(2.43022e-05 1.31096e-05 0)
(8.61776e-06 1.82593e-05 0)
(-1.34309e-05 2.5838e-05 0)
(-4.5176e-05 3.76523e-05 0)
(-9.28871e-05 5.777e-05 0)
(-0.000167691 9.18386e-05 0)
(-0.000263053 9.88847e-05 0)
(6.58266e-05 5.5799e-07 0)
(6.54627e-05 6.12626e-07 0)
(6.50462e-05 7.27256e-07 0)
(6.45363e-05 9.13119e-07 0)
(6.38831e-05 1.18845e-06 0)
(6.30226e-05 1.5803e-06 0)
(6.18705e-05 2.12721e-06 0)
(6.03138e-05 2.88314e-06 0)
(5.81998e-05 3.92302e-06 0)
(5.53209e-05 5.35072e-06 0)
(5.13939e-05 7.31076e-06 0)
(4.60316e-05 1.0006e-05 0)
(3.8704e-05 1.37262e-05 0)
(2.86847e-05 1.88972e-05 0)
(1.49819e-05 2.61745e-05 0)
(-3.73299e-06 3.66377e-05 0)
(-2.91116e-05 5.22312e-05 0)
(-6.26446e-05 7.67241e-05 0)
(-0.000104381 0.000114621 0)
(-0.000154517 0.000126238 0)
(6.58624e-05 8.6907e-07 0)
(6.55736e-05 9.5416e-07 0)
(6.52431e-05 1.13268e-06 0)
(6.48386e-05 1.42212e-06 0)
(6.43204e-05 1.85085e-06 0)
(6.36378e-05 2.46095e-06 0)
(6.27242e-05 3.31229e-06 0)
(6.14904e-05 4.48861e-06 0)
(5.98161e-05 6.10585e-06 0)
(5.75388e-05 8.32405e-06 0)
(5.44391e-05 1.13641e-05 0)
(5.0222e-05 1.5532e-05 0)
(4.44955e-05 2.12544e-05 0)
(3.67505e-05 2.91334e-05 0)
(2.63583e-05 4.00333e-05 0)
(1.26275e-05 5.52245e-05 0)
(-4.96373e-06 7.66142e-05 0)
(-2.61222e-05 0.000107032 0)
(-4.90117e-05 0.000148938 0)
(-7.77798e-05 0.000170825 0)
(6.59116e-05 1.09506e-06 0)
(6.57263e-05 1.20227e-06 0)
(6.55142e-05 1.42718e-06 0)
(6.52545e-05 1.79182e-06 0)
(6.4922e-05 2.3319e-06 0)
(6.44841e-05 3.10034e-06 0)
(6.38982e-05 4.17241e-06 0)
(6.31074e-05 5.65317e-06 0)
(6.20353e-05 7.68773e-06 0)
(6.05792e-05 1.04755e-05 0)
(5.86018e-05 1.42896e-05 0)
(5.59219e-05 1.95035e-05 0)
(5.23054e-05 2.6626e-05 0)
(4.74636e-05 3.63485e-05 0)
(4.10731e-05 4.9601e-05 0)
(3.28482e-05 6.76125e-05 0)
(2.27288e-05 9.1937e-05 0)
(1.1264e-05 0.000124333 0)
(-5.80421e-08 0.000165849 0)
(-1.66267e-05 0.00019925 0)
(6.59696e-05 1.21385e-06 0)
(6.59057e-05 1.33267e-06 0)
(6.58327e-05 1.58194e-06 0)
(6.57433e-05 1.98607e-06 0)
(6.56289e-05 2.5846e-06 0)
(6.54783e-05 3.43609e-06 0)
(6.52771e-05 4.62384e-06 0)
(6.50057e-05 6.26392e-06 0)
(6.46384e-05 8.51641e-06 0)
(6.41407e-05 1.16006e-05 0)
(6.34671e-05 1.58155e-05 0)
(6.25585e-05 2.15662e-05 0)
(6.13405e-05 2.93978e-05 0)
(5.97255e-05 4.00334e-05 0)
(5.76223e-05 5.44097e-05 0)
(5.49635e-05 7.36874e-05 0)
(5.1762e-05 9.9183e-05 0)
(4.82017e-05 0.000132112 0)
(4.46745e-05 0.000172919 0)
(3.77358e-05 0.000215688 0)
(6.60305e-05 1.21381e-06 0)
(6.60944e-05 1.33262e-06 0)
(6.61676e-05 1.58186e-06 0)
(6.62572e-05 1.98592e-06 0)
(6.6372e-05 2.58433e-06 0)
(6.65233e-05 3.4356e-06 0)
(6.6726e-05 4.62293e-06 0)
(6.69999e-05 6.26225e-06 0)
(6.73719e-05 8.51336e-06 0)
(6.78782e-05 1.15951e-05 0)
(6.85674e-05 1.58054e-05 0)
(6.95043e-05 2.15481e-05 0)
(7.07726e-05 2.93657e-05 0)
(7.24755e-05 3.99777e-05 0)
(7.47271e-05 5.4317e-05 0)
(7.76215e-05 7.35445e-05 0)
(8.11538e-05 9.89951e-05 0)
(8.50539e-05 0.00013196 0)
(8.8504e-05 0.000173148 0)
(8.9527e-05 0.000221374 0)
(6.60884e-05 1.09497e-06 0)
(6.62738e-05 1.20213e-06 0)
(6.6486e-05 1.42696e-06 0)
(6.67458e-05 1.79143e-06 0)
(6.70786e-05 2.33119e-06 0)
(6.75169e-05 3.09904e-06 0)
(6.81037e-05 4.17003e-06 0)
(6.88961e-05 5.6488e-06 0)
(6.99712e-05 7.67973e-06 0)
(7.14328e-05 1.04609e-05 0)
(7.34202e-05 1.4263e-05 0)
(7.61187e-05 1.94551e-05 0)
(7.97701e-05 2.65391e-05 0)
(8.46768e-05 3.61946e-05 0)
(9.11891e-05 4.93361e-05 0)
(9.96416e-05 6.71785e-05 0)
(0.000110178 9.12927e-05 0)
(0.000122355 0.000123584 0)
(0.000134442 0.000165987 0)
(0.00014266 0.000219295 0)
(6.61376e-05 8.68952e-07 0)
(6.64264e-05 9.53997e-07 0)
(6.67569e-05 1.13241e-06 0)
(6.71614e-05 1.42163e-06 0)
(6.76796e-05 1.84998e-06 0)
(6.83622e-05 2.45934e-06 0)
(6.92758e-05 3.30934e-06 0)
(7.05097e-05 4.48319e-06 0)
(7.2184e-05 6.09589e-06 0)
(7.44615e-05 8.30574e-06 0)
(7.75617e-05 1.13305e-05 0)
(8.17805e-05 1.54702e-05 0)
(8.75121e-05 2.1141e-05 0)
(9.52725e-05 2.89256e-05 0)
(0.000105711 3.96544e-05 0)
(0.000119578 5.45407e-05 0)
(0.00013756 7.54129e-05 0)
(0.000159748 0.000105098 0)
(0.000184233 0.000147903 0)
(0.000204028 0.000209366 0)
(6.61734e-05 5.57894e-07 0)
(6.65372e-05 6.12494e-07 0)
(6.69536e-05 7.27037e-07 0)
(6.74634e-05 9.12729e-07 0)
(6.81163e-05 1.18774e-06 0)
(6.89763e-05 1.579e-06 0)
(7.01276e-05 2.12482e-06 0)
(7.16827e-05 2.87874e-06 0)
(7.37938e-05 3.9149e-06 0)
(7.66673e-05 5.33573e-06 0)
(8.05846e-05 7.28298e-06 0)
(8.59293e-05 9.9543e-06 0)
(9.32254e-05 1.36291e-05 0)
(0.00010319 1.87124e-05 0)
(0.000116804 2.58152e-05 0)
(0.0001354 3.59168e-05 0)
(0.000160735 5.07205e-05 0)
(0.000194845 7.34917e-05 0)
(0.000238712 0.000111158 0)
(0.000285191 0.000179836 0)
(6.61922e-05 3.84472e-07 0)
(6.65955e-05 4.22099e-07 0)
(6.70571e-05 5.01036e-07 0)
(6.76221e-05 6.29006e-07 0)
(6.83459e-05 8.18535e-07 0)
(6.92992e-05 1.08818e-06 0)
(7.05755e-05 1.46438e-06 0)
(7.22997e-05 1.98407e-06 0)
(7.4641e-05 2.69849e-06 0)
(7.78295e-05 3.67856e-06 0)
(8.21802e-05 5.02286e-06 0)
(8.81266e-05 6.86979e-06 0)
(9.62702e-05 9.41746e-06 0)
(0.000107459 1.29593e-05 0)
(0.000122915 1.79543e-05 0)
(0.000144483 2.51817e-05 0)
(0.000175135 3.61208e-05 0)
(0.000220186 5.39812e-05 0)
(0.000290577 8.68019e-05 0)
(0.000412834 0.000157713 0)
)
;

boundaryField
{
    x0
    {
        type            fixedValue;
        value           uniform (6.6e-05 0 0);
    }
    x1
    {
        type            zeroGradient;
    }
    y0
    {
        type            zeroGradient;
    }
    y1
    {
        type            zeroGradient;
    }
    z0
    {
        type            empty;
    }
    z1
    {
        type            empty;
    }
}


// ************************************************************************* //
