/*--------------------------------*- C++ -*----------------------------------*\
  =========                 |
  \\      /  F ield         | OpenFOAM: The Open Source CFD Toolbox
   \\    /   O peration     | Website:  https://openfoam.org
    \\  /    A nd           | Version:  7
     \\/     M anipulation  |
\*---------------------------------------------------------------------------*/
FoamFile
{
    version     2.0;
    format      ascii;
    class       volScalarField;
    location    "150000";
    object      C;
}
// * * * * * * * * * * * * * * * * * * * * * * * * * * * * * * * * * * * * * //

dimensions      [0 0 0 0 0 0 0];

internalField   nonuniform List<scalar> 
200
(
-5.95198e-47
2.42506e-44
-9.43979e-42
3.52524e-39
-1.26328e-36
4.3508e-34
-1.44515e-31
4.65941e-29
-1.47456e-26
4.66872e-24
-1.5294e-21
5.52343e-19
-2.53025e-16
2.34102e-13
2.57762e-10
5.61819e-08
4.85591e-06
0.000188341
0.00321289
0.021721
-1.70344e-48
6.97701e-46
-2.72941e-43
1.02381e-40
-3.68173e-38
1.27046e-35
-4.2171e-33
1.35298e-30
-4.231e-28
1.30828e-25
-4.10025e-23
1.36236e-20
-5.25917e-18
3.01432e-15
3.48214e-11
1.09066e-08
1.21938e-06
6.10408e-05
0.00143661
0.0150375
9.14488e-49
-3.78105e-46
1.49164e-43
-5.63564e-41
2.03811e-38
-7.05782e-36
2.34396e-33
-7.49107e-31
2.3182e-28
-7.02142e-26
2.11976e-23
-6.58449e-21
2.23172e-18
-9.34367e-16
6.94376e-13
7.75514e-10
1.5978e-07
1.3224e-05
0.000516543
0.00952221
2.60586e-50
-9.88638e-48
3.5167e-45
-1.1708e-42
3.61215e-40
-1.01622e-37
2.52734e-35
-5.14327e-33
6.17581e-31
1.23547e-28
-1.32419e-25
6.88601e-23
-3.05778e-20
1.36369e-17
-7.20144e-15
6.59337e-12
5.28443e-09
1.08494e-06
0.000100547
0.00472705
-4.04429e-50
1.71436e-47
-6.89726e-45
2.63994e-42
-9.58984e-40
3.29799e-37
-1.07106e-34
3.2766e-32
-9.42034e-30
2.54027e-27
-6.41593e-25
1.51695e-22
-3.35882e-20
6.96815e-18
-1.34893e-15
2.34842e-13
-2.04219e-11
2.55887e-08
2.5972e-06
0.000540108
-3.27703e-49
1.45218e-46
-6.10889e-44
2.44425e-41
-9.27449e-39
3.32584e-36
-1.12261e-33
3.54974e-31
-1.0455e-28
2.84858e-26
-7.11976e-24
1.61577e-21
-3.28766e-19
5.90533e-17
-9.18826e-15
1.21066e-12
-1.31609e-10
1.15046e-08
-7.31151e-07
4.62712e-05
-1.96502e-49
9.05533e-47
-3.9585e-44
1.64386e-41
-6.46164e-39
2.39353e-36
-8.30927e-34
2.68508e-31
-8.00835e-29
2.1815e-26
-5.35714e-24
1.16712e-21
-2.21233e-19
3.56497e-17
-4.7534e-15
5.08617e-13
-4.22027e-11
2.60913e-09
-1.1335e-07
3.06094e-06
-3.66818e-50
1.75105e-47
-7.92524e-45
3.40424e-42
-1.38208e-39
5.27552e-37
-1.88074e-34
6.20977e-32
-1.87904e-29
5.143e-27
-1.25284e-24
2.66338e-22
-4.82674e-20
7.25546e-18
-8.76757e-16
8.2216e-14
-5.7457e-12
2.84598e-10
-9.2349e-09
1.60069e-07
-2.83496e-51
1.39477e-48
-6.50566e-46
2.87873e-43
-1.20307e-40
4.72109e-38
-1.72672e-35
5.8309e-33
-1.79652e-30
4.97636e-28
-1.2171e-25
2.57179e-23
-4.57604e-21
6.65596e-19
-7.65103e-17
6.68757e-15
-4.24661e-13
1.84553e-11
-4.9822e-10
6.54467e-09
-9.46854e-53
4.75018e-50
-2.25969e-47
1.01983e-44
-4.34649e-42
1.73881e-39
-6.47855e-37
2.22593e-34
-6.96517e-32
1.95441e-29
-4.82557e-27
1.02494e-24
-1.82358e-22
2.63609e-20
-2.99022e-18
2.55739e-16
-1.57137e-14
6.4964e-13
-1.61713e-11
1.82639e-10
)
;

boundaryField
{
    x0
    {
        type            fixedValue;
        value           uniform 0;
    }
    x1
    {
        type            inletOutlet;
        inletValue      uniform 0.0357;
        value           nonuniform List<scalar> 10(0.0357 0.0357 0.0357 0.0357 0.000540108 4.62712e-05 3.06094e-06 1.60069e-07 6.54467e-09 1.82639e-10);
    }
    y0
    {
        type            zeroGradient;
    }
    y1
    {
        type            zeroGradient;
    }
    z0
    {
        type            empty;
    }
    z1
    {
        type            empty;
    }
}


// ************************************************************************* //
