/*--------------------------------*- C++ -*----------------------------------*\
  =========                 |
  \\      /  F ield         | OpenFOAM: The Open Source CFD Toolbox
   \\    /   O peration     | Website:  https://openfoam.org
    \\  /    A nd           | Version:  7
     \\/     M anipulation  |
\*---------------------------------------------------------------------------*/
FoamFile
{
    version     2.0;
    format      ascii;
    class       volScalarField;
    location    "150000";
    object      C_0;
}
// * * * * * * * * * * * * * * * * * * * * * * * * * * * * * * * * * * * * * //

dimensions      [0 0 0 0 0 0 0];

internalField   nonuniform List<scalar> 
200
(
-5.90486e-47
2.40681e-44
-9.37246e-42
3.50148e-39
-1.25526e-36
4.32491e-34
-1.43712e-31
4.63536e-29
-1.46753e-26
4.6483e-24
-1.52331e-21
5.5036e-19
-2.52214e-16
2.33437e-13
2.57145e-10
5.60706e-08
4.84831e-06
0.000188126
0.00321064
0.0217152
-1.68925e-48
6.92163e-46
-2.70881e-43
1.01649e-40
-3.65683e-38
1.26236e-35
-4.19189e-33
1.34542e-30
-4.20902e-28
1.30199e-25
-4.08213e-23
1.35687e-20
-5.23994e-18
3.00439e-15
3.47359e-11
1.08844e-08
1.21741e-06
6.09677e-05
0.0014355
0.0150324
9.07149e-49
-3.75217e-46
1.48083e-43
-5.59697e-41
2.02492e-38
-7.01486e-36
2.3306e-33
-7.45128e-31
2.30678e-28
-6.98954e-26
2.11095e-23
-6.55962e-21
2.22413e-18
-9.31539e-16
6.92524e-13
7.73856e-10
1.59509e-07
1.32072e-05
0.000516104
0.00951834
2.58562e-50
-9.81376e-48
3.49239e-45
-1.16323e-42
3.5905e-40
-1.01065e-37
2.51503e-35
-5.1227e-33
6.16626e-31
1.22362e-28
-1.31686e-25
6.85466e-23
-3.04576e-20
1.35901e-17
-7.17986e-15
6.57614e-12
5.27399e-09
1.08337e-06
0.00010045
0.00472462
-4.01045e-50
1.70069e-47
-6.845e-45
2.62099e-42
-9.52482e-40
3.27695e-37
-1.06466e-34
3.25833e-32
-9.37163e-30
2.52817e-27
-6.38798e-25
1.51096e-22
-3.34692e-20
6.94627e-18
-1.34524e-15
2.34301e-13
-2.0397e-11
2.55426e-08
2.59347e-06
0.000539649
-3.2485e-49
1.44011e-46
-6.0605e-44
2.42585e-41
-9.20832e-39
3.30343e-36
-1.11549e-33
3.52861e-31
-1.0397e-28
2.83388e-26
-7.08583e-24
1.60871e-21
-3.27459e-19
5.8842e-17
-9.15904e-15
1.20729e-12
-1.31295e-10
1.14817e-08
-7.30001e-07
4.62149e-05
-1.94715e-49
8.97652e-47
-3.92561e-44
1.63084e-41
-6.41303e-39
2.37646e-36
-8.2533e-34
2.66805e-31
-7.96073e-29
2.16939e-26
-5.32951e-24
1.16156e-21
-2.20267e-19
3.55082e-17
-4.73642e-15
5.07002e-13
-4.20855e-11
2.60292e-09
-1.13125e-07
3.05606e-06
-3.63339e-50
1.73513e-47
-7.85628e-45
3.37596e-42
-1.37114e-39
5.23584e-37
-1.86733e-34
6.16796e-32
-1.86713e-29
5.11244e-27
-1.24588e-24
2.64966e-22
-4.80377e-20
7.22383e-18
-8.73282e-16
8.19228e-14
-5.72749e-12
2.83809e-10
-9.21297e-09
1.59753e-07
-2.80697e-51
1.38155e-48
-6.44651e-46
2.85369e-43
-1.19308e-40
4.68374e-38
-1.71374e-35
5.78936e-33
-1.78443e-30
4.94484e-28
-1.20988e-25
2.55753e-23
-4.55248e-21
6.62433e-19
-7.61772e-17
6.66111e-15
-4.2315e-13
1.8397e-11
-4.96844e-10
6.52927e-09
-9.37132e-53
4.70326e-50
-2.23825e-47
1.01056e-44
-4.30868e-42
1.72436e-39
-6.42729e-37
2.20919e-34
-6.91555e-32
1.94126e-29
-4.79501e-27
1.01885e-24
-1.81347e-22
2.62253e-20
-2.97603e-18
2.54627e-16
-1.56517e-14
6.47335e-13
-1.61205e-11
1.82141e-10
)
;

boundaryField
{
    x0
    {
        type            fixedValue;
        value           uniform 0;
    }
    x1
    {
        type            inletOutlet;
        inletValue      uniform 0.0357;
        value           nonuniform List<scalar> 10(0.0357 0.0357 0.0357 0.0357 0.000539649 4.62149e-05 3.05606e-06 1.59753e-07 6.52927e-09 1.82141e-10);
    }
    y0
    {
        type            zeroGradient;
    }
    y1
    {
        type            zeroGradient;
    }
    z0
    {
        type            empty;
    }
    z1
    {
        type            empty;
    }
}


// ************************************************************************* //
