/*--------------------------------*- C++ -*----------------------------------*\
  =========                 |
  \\      /  F ield         | OpenFOAM: The Open Source CFD Toolbox
   \\    /   O peration     | Website:  https://openfoam.org
    \\  /    A nd           | Version:  7
     \\/     M anipulation  |
\*---------------------------------------------------------------------------*/
FoamFile
{
    version     2.0;
    format      ascii;
    class       surfaceScalarField;
    location    "150000";
    object      phi;
}
// * * * * * * * * * * * * * * * * * * * * * * * * * * * * * * * * * * * * * //

dimensions      [0 3 -1 0 0 0 0];

internalField   nonuniform List<scalar> 
370
(
6.56144e-06
3.85577e-08
6.51911e-06
4.23342e-08
6.46885e-06
5.02578e-08
6.40574e-06
6.31067e-08
6.3236e-06
8.21438e-08
6.21436e-06
1.09244e-07
6.06727e-06
1.47081e-07
5.86787e-06
1.99409e-07
5.59641e-06
2.71455e-07
5.2259e-06
3.70505e-07
4.71912e-06
5.06785e-07
4.02426e-06
6.94861e-07
3.0682e-06
9.56059e-07
1.74514e-06
1.32306e-06
-1.04625e-07
1.84976e-06
-2.73974e-06
2.63512e-06
-6.62593e-06
3.88619e-06
-1.26624e-05
6.03643e-06
-2.17235e-05
9.06116e-06
6.90133e-06
6.56522e-06
7.33389e-08
6.52703e-06
8.05212e-08
6.4817e-06
9.55904e-08
6.42478e-06
1.20025e-07
6.3507e-06
1.56225e-07
6.25219e-06
2.07749e-07
6.1196e-06
2.79672e-07
5.93991e-06
3.79101e-07
5.69546e-06
5.15907e-07
5.36218e-06
7.03781e-07
4.9072e-06
9.61773e-07
4.28546e-06
1.3166e-06
3.4352e-06
1.80631e-06
2.27184e-06
2.48642e-06
6.80752e-07
3.44085e-06
-1.48657e-06
4.80244e-06
-4.39063e-06
6.79025e-06
-8.09868e-06
9.74448e-06
-1.26478e-05
1.36103e-05
1.24243e-05
6.5724e-06
1.00938e-07
6.5421e-06
1.10821e-07
6.50613e-06
1.31557e-07
6.46098e-06
1.65179e-07
6.40222e-06
2.14982e-07
6.32412e-06
2.85855e-07
6.21903e-06
3.84758e-07
6.07672e-06
5.21415e-07
5.88333e-06
7.09289e-07
5.62018e-06
9.66941e-07
5.26202e-06
1.31992e-06
4.77517e-06
1.80346e-06
4.11531e-06
2.46617e-06
3.22627e-06
3.37546e-06
2.04234e-06
4.62478e-06
5.0172e-07
6.34307e-06
-1.41093e-06
8.7029e-06
-3.57576e-06
1.19093e-05
-5.92408e-06
1.59586e-05
1.67252e-05
6.58228e-06
1.18653e-07
6.56284e-06
1.30269e-07
6.53976e-06
1.54639e-07
6.51078e-06
1.9415e-07
6.4731e-06
2.5267e-07
6.42302e-06
3.35932e-07
6.35569e-06
4.52088e-07
6.26459e-06
6.12512e-07
6.14099e-06
8.32896e-07
5.97316e-06
1.13477e-06
5.74556e-06
1.54753e-06
5.43789e-06
2.11112e-06
5.02459e-06
2.87947e-06
4.47559e-06
3.92446e-06
3.76063e-06
5.33974e-06
2.86161e-06
7.24208e-06
1.80042e-06
9.76409e-06
6.84349e-07
1.30254e-05
-3.88291e-07
1.70313e-05
2.00021e-05
6.5939e-06
1.24752e-07
6.58721e-06
1.36963e-07
6.57927e-06
1.62581e-07
6.5693e-06
2.04111e-07
6.55636e-06
2.65617e-07
6.53918e-06
3.53114e-07
6.51611e-06
4.75153e-07
6.48498e-06
6.43647e-07
6.44286e-06
8.75013e-07
6.38592e-06
1.19171e-06
6.30915e-06
1.62429e-06
6.20624e-06
2.21403e-06
6.06958e-06
3.01613e-06
5.89088e-06
4.10315e-06
5.66297e-06
5.56765e-06
5.38362e-06
7.52143e-06
5.0621e-06
1.00856e-05
4.72591e-06
1.33616e-05
4.38897e-06
1.73682e-05
2.17654e-05
6.60611e-06
1.1864e-07
6.61282e-06
1.30251e-07
6.6208e-06
1.54609e-07
6.63081e-06
1.94096e-07
6.64385e-06
2.52573e-07
6.66122e-06
3.35753e-07
6.68461e-06
4.51761e-07
6.71634e-06
6.11912e-07
6.75956e-06
8.31799e-07
6.8185e-06
1.13277e-06
6.89889e-06
1.5439e-06
7.00834e-06
2.10459e-06
7.15659e-06
2.86788e-06
7.35538e-06
3.90436e-06
7.61675e-06
5.30629e-06
7.94781e-06
7.19037e-06
8.33806e-06
9.69538e-06
8.73317e-06
1.29664e-05
8.99056e-06
1.71108e-05
2.2091e-05
6.61772e-06
1.00916e-07
6.63718e-06
1.10792e-07
6.66028e-06
1.31509e-07
6.68929e-06
1.65092e-07
6.72704e-06
2.14824e-07
6.77722e-06
2.85566e-07
6.84476e-06
3.84227e-07
6.93623e-06
5.2044e-07
7.06053e-06
7.07502e-07
7.22963e-06
9.63666e-07
7.45959e-06
1.31394e-06
7.77163e-06
1.79255e-06
8.19307e-06
2.44643e-06
8.75732e-06
3.34012e-06
9.50082e-06
4.56279e-06
1.04528e-05
6.23836e-06
1.16091e-05
8.53907e-06
1.28772e-05
1.16983e-05
1.39883e-05
1.59997e-05
2.1651e-05
6.6276e-06
7.33176e-08
6.6579e-06
8.04918e-08
6.69387e-06
9.55416e-08
6.73902e-06
1.19938e-07
6.79778e-06
1.56067e-07
6.87588e-06
2.07459e-07
6.98097e-06
2.7914e-07
7.12329e-06
3.78121e-07
7.31669e-06
5.14103e-07
7.5799e-06
7.00457e-07
7.9382e-06
9.55635e-07
8.42551e-06
1.30524e-06
9.08676e-06
1.78518e-06
9.97998e-06
2.4469e-06
1.11764e-05
3.36637e-06
1.27535e-05
4.66123e-06
1.47684e-05
6.52419e-06
1.71786e-05
9.2882e-06
1.96408e-05
1.35375e-05
2.01874e-05
6.63477e-06
3.85445e-08
6.67295e-06
4.2316e-08
6.71826e-06
5.02277e-08
6.77515e-06
6.3053e-08
6.84917e-06
8.2046e-08
6.94756e-06
1.09064e-07
7.07995e-06
1.46751e-07
7.25927e-06
1.98801e-07
7.50304e-06
2.70332e-07
7.83508e-06
3.68425e-07
8.2878e-06
5.0291e-07
8.90546e-06
6.87578e-07
9.74847e-06
9.42168e-07
1.08995e-05
1.29591e-06
1.24713e-05
1.79457e-06
1.46165e-05
2.51601e-06
1.75324e-05
3.60825e-06
2.14278e-05
5.39278e-06
2.62907e-05
8.67468e-06
1.57684e-05
6.63854e-06
6.68086e-06
6.73109e-06
6.79414e-06
6.87619e-06
6.98525e-06
7.132e-06
7.3308e-06
7.60114e-06
7.96956e-06
8.47247e-06
9.16005e-06
1.01022e-05
1.13981e-05
1.31927e-05
1.57087e-05
1.9317e-05
2.47097e-05
3.33844e-05
)
;

boundaryField
{
    x0
    {
        type            calculated;
        value           nonuniform List<scalar> 10(-6.6e-06 -6.6e-06 -6.6e-06 -6.6e-06 -6.6e-06 -6.6e-06 -6.6e-06 -6.6e-06 -6.6e-06 -6.6e-06);
    }
    x1
    {
        type            calculated;
        value           nonuniform List<scalar> 10(-2.86249e-05 -1.81708e-05 -1.02249e-05 -3.66523e-06 2.62568e-06 8.6649e-06 1.44284e-05 2.11043e-05 3.07096e-05 4.91528e-05);
    }
    y0
    {
        type            calculated;
        value           uniform 0;
    }
    y1
    {
        type            calculated;
        value           uniform 0;
    }
    z0
    {
        type            empty;
        value           nonuniform 0();
    }
    z1
    {
        type            empty;
        value           nonuniform 0();
    }
}


// ************************************************************************* //
