/*--------------------------------*- C++ -*----------------------------------*\
  =========                 |
  \\      /  F ield         | OpenFOAM: The Open Source CFD Toolbox
   \\    /   O peration     | Website:  https://openfoam.org
    \\  /    A nd           | Version:  7
     \\/     M anipulation  |
\*---------------------------------------------------------------------------*/
FoamFile
{
    version     2.0;
    format      ascii;
    class       volVectorField;
    location    "150000";
    object      Utheta;
}
// * * * * * * * * * * * * * * * * * * * * * * * * * * * * * * * * * * * * * //

dimensions      [0 1 -1 0 0 0 0];

internalField   nonuniform List<vector> 
200
(
(6.58072e-05 3.85577e-07 0)
(6.54028e-05 4.23342e-07 0)
(6.49398e-05 5.02578e-07 0)
(6.4373e-05 6.31067e-07 0)
(6.36467e-05 8.21438e-07 0)
(6.26898e-05 1.09244e-06 0)
(6.14082e-05 1.47081e-06 0)
(5.96757e-05 1.99409e-06 0)
(5.73214e-05 2.71455e-06 0)
(5.41116e-05 3.70505e-06 0)
(4.97251e-05 5.06785e-06 0)
(4.37169e-05 6.94861e-06 0)
(3.54623e-05 9.56059e-06 0)
(2.40667e-05 1.32306e-05 0)
(8.20257e-06 1.84976e-05 0)
(-1.42218e-05 2.63512e-05 0)
(-4.68284e-05 3.88619e-05 0)
(-9.64415e-05 6.03643e-05 0)
(-0.000171929 9.06116e-05 0)
(-0.000251742 6.90133e-05 0)
(6.58261e-05 5.59483e-07 0)
(6.54613e-05 6.14277e-07 0)
(6.50437e-05 7.29241e-07 0)
(6.45324e-05 9.1566e-07 0)
(6.38774e-05 1.19184e-06 0)
(6.30145e-05 1.58496e-06 0)
(6.1859e-05 2.13377e-06 0)
(6.02976e-05 2.89255e-06 0)
(5.81769e-05 3.93681e-06 0)
(5.52882e-05 5.37143e-06 0)
(5.13469e-05 7.34279e-06 0)
(4.59633e-05 1.00573e-05 0)
(3.86033e-05 1.38119e-05 0)
(2.85352e-05 1.90474e-05 0)
(1.4763e-05 2.64531e-05 0)
(-4.02909e-06 3.71878e-05 0)
(-2.9386e-05 5.33822e-05 0)
(-6.24465e-05 7.89046e-05 0)
(-0.000103732 0.000113357 0)
(-0.000154093 9.66283e-05 0)
(6.5862e-05 8.71383e-07 0)
(6.55725e-05 9.56713e-07 0)
(6.52412e-05 1.13574e-06 0)
(6.48356e-05 1.42602e-06 0)
(6.4316e-05 1.85604e-06 0)
(6.36317e-05 2.46802e-06 0)
(6.27157e-05 3.32215e-06 0)
(6.14787e-05 4.50258e-06 0)
(5.98003e-05 6.12598e-06 0)
(5.75176e-05 8.35361e-06 0)
(5.4411e-05 1.14085e-05 0)
(5.0186e-05 1.56003e-05 0)
(4.44524e-05 2.13624e-05 0)
(3.67079e-05 2.93094e-05 0)
(2.63431e-05 4.03282e-05 0)
(1.27203e-05 5.57275e-05 0)
(-4.54604e-06 7.74658e-05 0)
(-2.49334e-05 0.000108269 0)
(-4.74992e-05 0.000147845 0)
(-8.0745e-05 0.000145747 0)
(6.59114e-05 1.09795e-06 0)
(6.57256e-05 1.20545e-06 0)
(6.5513e-05 1.43098e-06 0)
(6.52527e-05 1.79664e-06 0)
(6.49194e-05 2.33826e-06 0)
(6.44806e-05 3.10894e-06 0)
(6.38935e-05 4.18423e-06 0)
(6.31014e-05 5.66963e-06 0)
(6.20279e-05 7.71093e-06 0)
(6.05707e-05 1.05085e-05 0)
(5.85936e-05 1.43373e-05 0)
(5.59172e-05 1.95729e-05 0)
(5.23124e-05 2.67282e-05 0)
(4.75009e-05 3.64996e-05 0)
(4.11811e-05 4.98226e-05 0)
(3.31112e-05 6.79257e-05 0)
(2.33102e-05 9.2335e-05 0)
(1.24239e-05 0.000124673 0)
(1.48029e-06 0.000164949 0)
(-2.02676e-05 0.000183636 0)
(6.59695e-05 1.21703e-06 0)
(6.59055e-05 1.33616e-06 0)
(6.58324e-05 1.5861e-06 0)
(6.57429e-05 1.9913e-06 0)
(6.56283e-05 2.59143e-06 0)
(6.54777e-05 3.44523e-06 0)
(6.52764e-05 4.63621e-06 0)
(6.50054e-05 6.28079e-06 0)
(6.46392e-05 8.53954e-06 0)
(6.41439e-05 1.16324e-05 0)
(6.34753e-05 1.58591e-05 0)
(6.2577e-05 2.16258e-05 0)
(6.13791e-05 2.9478e-05 0)
(5.98023e-05 4.0138e-05 0)
(5.77693e-05 5.4537e-05 0)
(5.5233e-05 7.38176e-05 0)
(5.22286e-05 9.92486e-05 0)
(4.894e-05 0.000131935 0)
(4.55744e-05 0.000171997 0)
(3.50733e-05 0.000208837 0)
(6.60306e-05 1.21696e-06 0)
(6.60947e-05 1.33607e-06 0)
(6.61681e-05 1.58595e-06 0)
(6.6258e-05 1.99103e-06 0)
(6.63733e-05 2.59095e-06 0)
(6.65253e-05 3.44433e-06 0)
(6.67291e-05 4.63457e-06 0)
(6.70047e-05 6.2778e-06 0)
(6.73795e-05 8.53406e-06 0)
(6.78903e-05 1.16224e-05 0)
(6.8587e-05 1.58409e-05 0)
(6.95362e-05 2.15931e-05 0)
(7.08247e-05 2.94201e-05 0)
(7.25599e-05 4.00376e-05 0)
(7.48607e-05 5.43697e-05 0)
(7.78228e-05 7.3559e-05 0)
(8.14293e-05 9.8905e-05 0)
(8.53561e-05 0.00013164 0)
(8.86187e-05 0.000172395 0)
(8.82773e-05 0.000219282 0)
(6.60886e-05 1.09778e-06 0)
(6.62745e-05 1.20522e-06 0)
(6.64873e-05 1.43059e-06 0)
(6.67478e-05 1.79594e-06 0)
(6.70816e-05 2.33698e-06 0)
(6.75213e-05 3.1066e-06 0)
(6.81099e-05 4.17994e-06 0)
(6.89049e-05 5.66176e-06 0)
(6.99838e-05 7.6965e-06 0)
(7.14508e-05 1.04822e-05 0)
(7.34461e-05 1.42892e-05 0)
(7.61561e-05 1.94857e-05 0)
(7.98235e-05 2.65716e-05 0)
(8.4752e-05 3.62224e-05 0)
(9.12907e-05 4.93454e-05 0)
(9.97682e-05 6.71437e-05 0)
(0.00011031 9.11722e-05 0)
(0.000122432 0.000123324 0)
(0.000134328 0.000165553 0)
(0.000142084 0.00021871 0)
(6.6138e-05 8.7117e-07 0)
(6.64275e-05 9.56419e-07 0)
(6.67588e-05 1.13525e-06 0)
(6.71644e-05 1.42515e-06 0)
(6.7684e-05 1.85446e-06 0)
(6.83683e-05 2.46512e-06 0)
(6.92843e-05 3.31683e-06 0)
(7.05213e-05 4.49281e-06 0)
(7.21999e-05 6.10803e-06 0)
(7.44829e-05 8.32062e-06 0)
(7.75905e-05 1.13479e-05 0)
(8.18186e-05 1.54889e-05 0)
(8.75614e-05 2.11581e-05 0)
(9.53337e-05 2.89351e-05 0)
(0.000105782 3.96458e-05 0)
(0.00011965 5.4498e-05 0)
(0.00013761 7.53163e-05 0)
(0.000159735 0.000104933 0)
(0.000184097 0.000147686 0)
(0.000203726 0.000209192 0)
(6.61739e-05 5.59311e-07 0)
(6.65386e-05 6.14039e-07 0)
(6.69561e-05 7.28846e-07 0)
(6.74671e-05 9.14957e-07 0)
(6.81216e-05 1.19056e-06 0)
(6.89837e-05 1.58262e-06 0)
(7.01376e-05 2.12945e-06 0)
(7.16961e-05 2.88461e-06 0)
(7.38116e-05 3.92218e-06 0)
(7.66906e-05 5.34441e-06 0)
(8.06144e-05 7.29272e-06 0)
(8.59663e-05 9.96407e-06 0)
(9.32697e-05 1.36368e-05 0)
(0.00010324 1.8714e-05 0)
(0.000116854 2.58047e-05 0)
(0.000135439 3.58862e-05 0)
(0.000160745 5.06622e-05 0)
(0.000194801 7.34049e-05 0)
(0.000238593 0.000111061 0)
(0.000285001 0.000179779 0)
(6.61927e-05 3.85445e-07 0)
(6.6597e-05 4.2316e-07 0)
(6.70597e-05 5.02277e-07 0)
(6.76261e-05 6.3053e-07 0)
(6.83516e-05 8.2046e-07 0)
(6.93072e-05 1.09064e-06 0)
(7.05863e-05 1.46751e-06 0)
(7.2314e-05 1.98801e-06 0)
(7.46597e-05 2.70332e-06 0)
(7.78535e-05 3.68425e-06 0)
(8.22102e-05 5.0291e-06 0)
(8.81626e-05 6.87578e-06 0)
(9.63113e-05 9.42168e-06 0)
(0.000107502 1.29591e-05 0)
(0.000122954 1.79457e-05 0)
(0.000144507 2.51601e-05 0)
(0.000175128 3.60825e-05 0)
(0.000220134 5.39278e-05 0)
(0.000290471 8.67468e-05 0)
(0.000412686 0.000157684 0)
)
;

boundaryField
{
    x0
    {
        type            fixedValue;
        value           uniform (6.6e-05 0 0);
    }
    x1
    {
        type            zeroGradient;
    }
    y0
    {
        type            zeroGradient;
    }
    y1
    {
        type            zeroGradient;
    }
    z0
    {
        type            empty;
    }
    z1
    {
        type            empty;
    }
}


// ************************************************************************* //
