/*--------------------------------*- C++ -*----------------------------------*\
  =========                 |
  \\      /  F ield         | OpenFOAM: The Open Source CFD Toolbox
   \\    /   O peration     | Website:  https://openfoam.org
    \\  /    A nd           | Version:  7
     \\/     M anipulation  |
\*---------------------------------------------------------------------------*/
FoamFile
{
    version     2.0;
    format      ascii;
    class       volScalarField;
    location    "500";
    object      C;
}
// * * * * * * * * * * * * * * * * * * * * * * * * * * * * * * * * * * * * * //

dimensions      [0 0 0 0 0 0 0];

internalField   nonuniform List<scalar> 
200
(
1.00272
0.99926
0.992788
1.00293
1.00347
0.997849
1.00385
1.00203
0.994613
0.998658
0.998669
0.9958
1.00703
1.00775
0.996193
0.996345
1.00443
0.999362
0.991765
0.997026
1.00272
0.99926
0.992788
1.00293
1.00347
0.997849
1.00385
1.00203
0.994613
0.998658
0.998669
0.9958
1.00703
1.00775
0.996193
0.996345
1.00443
0.999362
0.991765
0.997026
1.00272
0.99926
0.992788
1.00293
1.00347
0.997849
1.00385
1.00203
0.994613
0.998658
0.998669
0.9958
1.00703
1.00775
0.996193
0.996345
1.00443
0.999362
0.991765
0.997026
1.00272
0.99926
0.992788
1.00293
1.00347
0.997849
1.00385
1.00203
0.994613
0.998658
0.998669
0.9958
1.00703
1.00775
0.996193
0.996345
1.00443
0.999362
0.991765
0.997026
1.00272
0.99926
0.992788
1.00293
1.00347
0.997849
1.00385
1.00203
0.994613
0.998658
0.998669
0.9958
1.00703
1.00775
0.996193
0.996345
1.00443
0.999362
0.991765
0.997026
1.00272
0.99926
0.992788
1.00293
1.00347
0.997849
1.00385
1.00203
0.994613
0.998658
0.998669
0.9958
1.00703
1.00775
0.996193
0.996345
1.00443
0.999362
0.991765
0.997026
1.00272
0.99926
0.992788
1.00293
1.00347
0.997849
1.00385
1.00203
0.994613
0.998658
0.998669
0.9958
1.00703
1.00775
0.996193
0.996345
1.00443
0.999362
0.991765
0.997026
1.00272
0.99926
0.992788
1.00293
1.00347
0.997849
1.00385
1.00203
0.994613
0.998658
0.998669
0.9958
1.00703
1.00775
0.996193
0.996345
1.00443
0.999362
0.991765
0.997026
1.00272
0.99926
0.992788
1.00293
1.00347
0.997849
1.00385
1.00203
0.994613
0.998658
0.998669
0.9958
1.00703
1.00775
0.996193
0.996345
1.00443
0.999362
0.991765
0.997026
1.00272
0.99926
0.992788
1.00293
1.00347
0.997849
1.00385
1.00203
0.994613
0.998658
0.998669
0.9958
1.00703
1.00775
0.996193
0.996345
1.00443
0.999362
0.991765
0.997026
)
;

boundaryField
{
    x0
    {
        type            fixedValue;
        value           uniform 1;
    }
    x1
    {
        type            zeroGradient;
    }
    y0
    {
        type            zeroGradient;
    }
    y1
    {
        type            zeroGradient;
    }
    z0
    {
        type            empty;
    }
    z1
    {
        type            empty;
    }
}


// ************************************************************************* //
