/*--------------------------------*- C++ -*----------------------------------*\
  =========                 |
  \\      /  F ield         | OpenFOAM: The Open Source CFD Toolbox
   \\    /   O peration     | Website:  https://openfoam.org
    \\  /    A nd           | Version:  7
     \\/     M anipulation  |
\*---------------------------------------------------------------------------*/
FoamFile
{
    version     2.0;
    format      ascii;
    class       surfaceScalarField;
    location    "500";
    object      phi;
}
// * * * * * * * * * * * * * * * * * * * * * * * * * * * * * * * * * * * * * //

dimensions      [0 3 -1 0 0 0 0];

internalField   nonuniform List<scalar> 
370
(
0.000500001
6.66135e-18
0.000500001
1.28786e-16
0.000500001
3.78587e-16
0.000500001
3.4417e-16
0.000500001
1.11023e-16
0.000500001
1.64868e-16
0.000500001
-2.99761e-17
0.000500001
-4.10783e-17
0.000500001
5.9397e-17
0.000500001
1.26011e-16
0.000500001
1.39333e-16
0.000500001
1.06582e-16
0.000500001
1.70975e-16
0.000500001
1.2379e-16
0.000500001
-7.49402e-17
0.000500001
-1.54044e-16
0.000500001
-7.49402e-17
0.000500001
3.46945e-18
0.000500001
6.61972e-17
7.68484e-17
0.000500001
-2.22739e-17
0.000500001
1.07692e-16
0.000500001
-9.15936e-18
0.000500001
2.71172e-16
0.000500001
4.5658e-16
0.000500001
4.30212e-16
0.000500001
4.09118e-16
0.000500001
2.9754e-16
0.000500001
1.59317e-16
0.000500001
2.49801e-17
0.000500001
2.99761e-17
0.000500001
-6.10624e-18
0.000500001
-3.05312e-17
0.000500001
1.59317e-16
0.000500001
2.39809e-16
0.000500001
6.49482e-17
0.000500001
-6.55033e-17
0.000500001
1.38778e-18
0.000500001
8.77078e-17
5.54766e-17
0.000500001
-1.56472e-16
0.000500001
4.64074e-16
0.000500001
1.85824e-16
0.000500001
3.31125e-16
0.000500001
4.51862e-16
0.000500001
2.54242e-16
0.000500001
2.44805e-16
0.000500001
7.93811e-17
0.000500001
7.49402e-17
0.000500001
6.66135e-18
0.000500001
9.43691e-18
0.000500001
1.35447e-16
0.000500001
1.40999e-16
0.000500001
9.93651e-17
0.000500001
8.93731e-17
0.000500001
6.32828e-17
0.000500001
6.21726e-17
0.000500001
7.99362e-17
0.000500001
4.0662e-17
-5.44704e-18
0.000500001
2.36478e-16
0.000500001
1.06582e-16
0.000500001
5.02793e-16
0.000500001
3.09475e-16
0.000500001
2.11775e-16
0.000500001
-1.16574e-17
0.000500001
1.69864e-16
0.000500001
2.4425e-16
0.000500001
1.09912e-16
0.000500001
-1.4877e-16
0.000500001
-2.22045e-17
0.000500001
1.75416e-16
0.000500001
-2.27596e-17
0.000500001
-2.80332e-16
0.000500001
-2.11498e-16
0.000500001
-1.63758e-17
0.000500001
3.38619e-17
0.000500001
-1.51268e-17
0.000500001
-5.35684e-17
-2.97332e-17
0.000500001
-4.00826e-16
0.000500001
-2.60903e-16
0.000500001
-1.52378e-16
0.000500001
-4.75454e-16
0.000500001
-3.43337e-16
0.000500001
6.82788e-17
0.000500001
6.27277e-17
0.000500001
-7.27197e-17
0.000500001
1.44329e-17
0.000500001
1.88738e-16
0.000500001
2.72005e-16
0.000500001
1.69309e-16
0.000500001
-6.71686e-17
0.000500001
-1.95955e-16
0.000500001
-1.26011e-16
0.000500001
-5.38459e-17
0.000500001
-1.09635e-16
0.000500001
-1.48354e-16
0.000500001
-7.24422e-17
7.25116e-18
0.000500001
4.452e-16
0.000500001
-7.31361e-17
0.000500001
-4.32571e-16
0.000500001
-1.29064e-16
0.000500001
-7.43851e-17
0.000500001
-2.7145e-16
0.000500001
-4.41314e-16
0.000500001
-2.55352e-16
0.000500001
-7.77158e-18
0.000500001
-3.83028e-17
0.000500001
-2.52021e-16
0.000500001
-2.78666e-16
0.000500001
-6.10624e-17
0.000500001
1.04916e-16
0.000500001
5.4401e-17
0.000500001
-8.1324e-17
0.000500001
-1.35447e-16
0.000500001
-5.07928e-17
0.000500001
7.67443e-17
8.37179e-17
0.000500001
-3.90765e-16
0.000500001
-4.31878e-16
0.000500001
-2.65344e-16
0.000500001
-2.45915e-16
0.000500001
-3.39729e-16
0.000500001
-3.39174e-16
0.000500001
-7.82709e-17
0.000500001
1.43219e-16
0.000500001
1.47105e-16
0.000500001
-7.04993e-17
0.000500001
-2.85328e-16
0.000500001
-2.07612e-16
0.000500001
5.32908e-17
0.000500001
1.53211e-16
0.000500001
8.8818e-18
0.000500001
-1.06026e-16
0.000500001
-6.66135e-18
0.000500001
1.75138e-16
0.000500001
2.3287e-16
1.11127e-16
0.000500001
7.77158e-18
0.000500001
-9.65896e-17
0.000500001
-3.51941e-16
0.000500001
-3.91909e-16
0.000500001
-2.27596e-16
0.000500001
2.77556e-18
0.000500001
-5.38459e-17
0.000500001
-2.76446e-16
0.000500001
-2.81442e-16
0.000500001
-7.77158e-17
0.000500001
1.12133e-16
0.000500001
1.82077e-16
0.000500001
1.4655e-16
0.000500001
3.9413e-17
0.000500001
-4.49641e-17
0.000500001
1.66534e-17
0.000500001
1.86518e-16
0.000500001
2.78528e-16
0.000500001
1.93734e-16
4.32641e-17
0.000500001
-2.06571e-16
0.000500001
-3.33206e-16
0.000500001
-3.0212e-16
0.000500001
-1.25733e-16
0.000500001
9.99203e-17
0.000500001
2.57572e-16
0.000500001
9.60345e-17
0.000500001
-1.9651e-16
0.000500001
-2.55352e-16
0.000500001
-4.55192e-17
0.000500001
1.50435e-16
0.000500001
1.32117e-16
0.000500001
-1.72085e-17
0.000500001
-9.54794e-17
0.000500001
-6.66135e-18
0.000500001
1.45162e-16
0.000500001
2.13996e-16
0.000500001
1.26427e-16
0.000500001
-2.6923e-17
-7.61892e-17
0.000500001
0.000500001
0.000500001
0.000500001
0.000500001
0.000500001
0.000500001
0.000500001
0.000500001
0.000500001
0.000500001
0.000500001
0.000500001
0.000500001
0.000500001
0.000500001
0.000500001
0.000500001
0.000500001
)
;

boundaryField
{
    x0
    {
        type            calculated;
        value           nonuniform List<scalar> 10(-0.000500001 -0.000500001 -0.000500001 -0.000500001 -0.000500001 -0.000500001 -0.000500001 -0.000500001 -0.000500001 -0.000500001);
    }
    x1
    {
        type            calculated;
        value           nonuniform List<scalar> 10(0.000500001 0.000500001 0.000500001 0.000500001 0.000500001 0.000500001 0.000500001 0.000500001 0.000500001 0.000500001);
    }
    y0
    {
        type            calculated;
        value           uniform 0;
    }
    y1
    {
        type            calculated;
        value           uniform 0;
    }
    z0
    {
        type            empty;
        value           nonuniform 0();
    }
    z1
    {
        type            empty;
        value           nonuniform 0();
    }
}


// ************************************************************************* //
