/*--------------------------------*- C++ -*----------------------------------*\
  =========                 |
  \\      /  F ield         | OpenFOAM: The Open Source CFD Toolbox
   \\    /   O peration     | Website:  https://openfoam.org
    \\  /    A nd           | Version:  7
     \\/     M anipulation  |
\*---------------------------------------------------------------------------*/
FoamFile
{
    version     2.0;
    format      ascii;
    class       volVectorField;
    location    "500";
    object      Utheta;
}
// * * * * * * * * * * * * * * * * * * * * * * * * * * * * * * * * * * * * * //

dimensions      [0 1 -1 0 0 0 0];

internalField   nonuniform List<vector> 
200
(
(0.00500001 3.33068e-17 0)
(0.00500001 6.43931e-16 0)
(0.00500001 1.89293e-15 0)
(0.00500001 1.72085e-15 0)
(0.00500001 5.55113e-16 0)
(0.00500001 8.24342e-16 0)
(0.00500001 -1.4988e-16 0)
(0.00500001 -2.05392e-16 0)
(0.00500001 2.96985e-16 0)
(0.00500001 6.30053e-16 0)
(0.00500001 6.96666e-16 0)
(0.00500001 5.32908e-16 0)
(0.00500001 8.54873e-16 0)
(0.00500001 6.1895e-16 0)
(0.00500001 -3.74701e-16 0)
(0.00500001 -7.70219e-16 0)
(0.00500001 -3.74701e-16 0)
(0.00500001 1.73473e-17 0)
(0.00500001 3.30986e-16 0)
(0.00500001 3.84242e-16 0)
(0.00500001 -7.80627e-17 0)
(0.00500001 1.18239e-15 0)
(0.00500001 1.84714e-15 0)
(0.00500001 3.07671e-15 0)
(0.00500001 2.83801e-15 0)
(0.00500001 2.9754e-15 0)
(0.00500001 1.89571e-15 0)
(0.00500001 1.28231e-15 0)
(0.00500001 1.09357e-15 0)
(0.00500001 7.54953e-16 0)
(0.00500001 8.46547e-16 0)
(0.00500001 5.02377e-16 0)
(0.00500001 7.02217e-16 0)
(0.00500001 1.41554e-15 0)
(0.00500001 8.24342e-16 0)
(0.00500001 -4.45478e-16 0)
(0.00500001 -7.02217e-16 0)
(0.00500001 2.42862e-17 0)
(0.00500001 7.69525e-16 0)
(0.00500001 6.61625e-16 0)
(0.00500001 -8.93731e-16 0)
(0.00500001 2.85883e-15 0)
(0.00500001 8.83323e-16 0)
(0.00500001 3.01149e-15 0)
(0.00500001 4.54221e-15 0)
(0.00500001 3.42227e-15 0)
(0.00500001 3.26961e-15 0)
(0.00500001 1.88461e-15 0)
(0.00500001 1.17129e-15 0)
(0.00500001 1.58207e-16 0)
(0.00500001 1.97065e-16 0)
(0.00500001 6.46706e-16 0)
(0.00500001 5.52337e-16 0)
(0.00500001 1.29341e-15 0)
(0.00500001 1.64591e-15 0)
(0.00500001 6.41155e-16 0)
(0.00500001 -1.66534e-17 0)
(0.00500001 4.0662e-16 0)
(0.00500001 6.41849e-16 0)
(0.00500001 2.50148e-16 0)
(0.00500001 4.00028e-16 0)
(0.00500001 2.85328e-15 0)
(0.00500001 3.44309e-15 0)
(0.00500001 3.203e-15 0)
(0.00500001 3.31819e-15 0)
(0.00500001 1.21292e-15 0)
(0.00500001 2.07335e-15 0)
(0.00500001 1.61815e-15 0)
(0.00500001 9.24262e-16 0)
(0.00500001 -7.10544e-16 0)
(0.00500001 -6.38379e-17 0)
(0.00500001 1.55432e-15 0)
(0.00500001 5.91195e-16 0)
(0.00500001 -9.04833e-16 0)
(0.00500001 -6.10624e-16 0)
(0.00500001 2.34535e-16 0)
(0.00500001 4.80172e-16 0)
(0.00500001 3.24047e-16 0)
(0.00500001 -6.45318e-17 0)
(0.00500001 -1.75901e-16 0)
(0.00500001 -8.2174e-16 0)
(0.00500001 -7.71606e-16 0)
(0.00500001 1.75207e-15 0)
(0.00500001 -8.29893e-16 0)
(0.00500001 -6.57808e-16 0)
(0.00500001 2.83107e-16 0)
(0.00500001 1.16296e-15 0)
(0.00500001 8.57649e-16 0)
(0.00500001 6.21726e-16 0)
(0.00500001 1.99841e-16 0)
(0.00500001 1.249e-15 0)
(0.00500001 1.72362e-15 0)
(0.00500001 -4.49641e-16 0)
(0.00500001 -2.38143e-15 0)
(0.00500001 -1.68754e-15 0)
(0.00500001 -3.51109e-16 0)
(0.00500001 -3.78864e-16 0)
(0.00500001 -8.17403e-16 0)
(0.00500001 -6.30053e-16 0)
(0.00500001 -1.1241e-16 0)
(0.00500001 2.21872e-16 0)
(0.00500001 -1.67019e-15 0)
(0.00500001 -2.92475e-15 0)
(0.00500001 -3.02259e-15 0)
(0.00500001 -2.08861e-15 0)
(0.00500001 -1.01586e-15 0)
(0.00500001 -1.89293e-15 0)
(0.00500001 -1.64036e-15 0)
(0.00500001 3.33068e-17 0)
(0.00500001 7.52177e-16 0)
(0.00500001 9.99203e-17 0)
(0.00500001 -5.46786e-16 0)
(0.00500001 -6.41155e-16 0)
(0.00500001 -4.55192e-16 0)
(0.00500001 -3.58048e-16 0)
(0.00500001 -6.75849e-16 0)
(0.00500001 -1.22541e-15 0)
(0.00500001 -9.95733e-16 0)
(0.00500001 2.15106e-17 0)
(0.00500001 4.54845e-16 0)
(0.00500001 2.72179e-16 0)
(0.00500001 -2.52507e-15 0)
(0.00500001 -3.48958e-15 0)
(0.00500001 -1.87489e-15 0)
(0.00500001 -2.07057e-15 0)
(0.00500001 -3.05312e-15 0)
(0.00500001 -2.59793e-15 0)
(0.00500001 -5.60664e-16 0)
(0.00500001 6.96666e-16 0)
(0.00500001 -5.4401e-16 0)
(0.00500001 -2.68674e-15 0)
(0.00500001 -2.43139e-15 0)
(0.00500001 -3.88579e-17 0)
(0.00500001 1.29064e-15 0)
(0.00500001 3.16414e-16 0)
(0.00500001 -9.36752e-16 0)
(0.00500001 -7.10544e-16 0)
(0.00500001 6.21726e-16 0)
(0.00500001 1.54807e-15 0)
(0.00500001 9.74222e-16 0)
(0.00500001 -1.91496e-15 0)
(0.00500001 -2.64234e-15 0)
(0.00500001 -3.08643e-15 0)
(0.00500001 -3.18912e-15 0)
(0.00500001 -2.83662e-15 0)
(0.00500001 -1.68199e-15 0)
(0.00500001 -6.60584e-16 0)
(0.00500001 -6.66135e-16 0)
(0.00500001 -6.71686e-16 0)
(0.00500001 -7.41075e-16 0)
(0.00500001 -8.65976e-16 0)
(0.00500001 -1.27676e-16 0)
(0.00500001 9.99203e-16 0)
(0.00500001 9.6312e-16 0)
(0.00500001 -1.80412e-16 0)
(0.00500001 -4.46866e-16 0)
(0.00500001 8.99282e-16 0)
(0.00500001 2.26833e-15 0)
(0.00500001 2.13302e-15 0)
(0.00500001 7.71953e-16 0)
(0.00500001 -9.93998e-16 0)
(0.00500001 -2.14898e-15 0)
(0.00500001 -3.27031e-15 0)
(0.00500001 -2.58821e-15 0)
(0.00500001 -6.38379e-16 0)
(0.00500001 1.30174e-15 0)
(0.00500001 2.10943e-16 0)
(0.00500001 -2.36478e-15 0)
(0.00500001 -2.68397e-15 0)
(0.00500001 -6.16175e-16 0)
(0.00500001 1.31284e-15 0)
(0.00500001 1.57097e-15 0)
(0.00500001 6.46706e-16 0)
(0.00500001 -2.80332e-16 0)
(0.00500001 -2.58127e-16 0)
(0.00500001 8.09076e-16 0)
(0.00500001 2.00257e-15 0)
(0.00500001 2.02477e-15 0)
(0.00500001 8.34057e-16 0)
(0.00500001 -1.64626e-16 0)
(0.00500001 -1.03286e-15 0)
(0.00500001 -1.66603e-15 0)
(0.00500001 -1.5106e-15 0)
(0.00500001 -6.28665e-16 0)
(0.00500001 4.99601e-16 0)
(0.00500001 1.28786e-15 0)
(0.00500001 4.80172e-16 0)
(0.00500001 -9.82549e-16 0)
(0.00500001 -1.27676e-15 0)
(0.00500001 -2.27596e-16 0)
(0.00500001 7.52177e-16 0)
(0.00500001 6.60584e-16 0)
(0.00500001 -8.60424e-17 0)
(0.00500001 -4.77397e-16 0)
(0.00500001 -3.33068e-17 0)
(0.00500001 7.2581e-16 0)
(0.00500001 1.06998e-15 0)
(0.00500001 6.32134e-16 0)
(0.00500001 -1.34615e-16 0)
(0.00500001 -3.80946e-16 0)
)
;

boundaryField
{
    x0
    {
        type            zeroGradient;
    }
    x1
    {
        type            zeroGradient;
    }
    y0
    {
        type            zeroGradient;
    }
    y1
    {
        type            zeroGradient;
    }
    z0
    {
        type            empty;
    }
    z1
    {
        type            empty;
    }
}


// ************************************************************************* //
