# vtk DataFile Version 1.0
                   1 cc Time:            100.0000000                              
ASCII

DATASET UNSTRUCTURED_GRID
POINTS    231 double

0.0000000E+00   1.0000000E+00  0.00000
0.0000000E+00   9.0000000E-01  0.00000
0.0000000E+00   8.0000000E-01  0.00000
0.0000000E+00   7.0000000E-01  0.00000
0.0000000E+00   6.0000000E-01  0.00000
0.0000000E+00   5.0000000E-01  0.00000
0.0000000E+00   4.0000000E-01  0.00000
0.0000000E+00   3.0000000E-01  0.00000
0.0000000E+00   2.0000000E-01  0.00000
0.0000000E+00   1.0000000E-01  0.00000
0.0000000E+00   0.0000000E+00  0.00000
1.0000000E-01   1.0000000E+00  0.00000
1.0000000E-01   9.0000000E-01  0.00000
1.0000000E-01   8.0000000E-01  0.00000
1.0000000E-01   7.0000000E-01  0.00000
1.0000000E-01   6.0000000E-01  0.00000
1.0000000E-01   5.0000000E-01  0.00000
1.0000000E-01   4.0000000E-01  0.00000
1.0000000E-01   3.0000000E-01  0.00000
1.0000000E-01   2.0000000E-01  0.00000
1.0000000E-01   1.0000000E-01  0.00000
1.0000000E-01   0.0000000E+00  0.00000
2.0000000E-01   1.0000000E+00  0.00000
2.0000000E-01   9.0000000E-01  0.00000
2.0000000E-01   8.0000000E-01  0.00000
2.0000000E-01   7.0000000E-01  0.00000
2.0000000E-01   6.0000000E-01  0.00000
2.0000000E-01   5.0000000E-01  0.00000
2.0000000E-01   4.0000000E-01  0.00000
2.0000000E-01   3.0000000E-01  0.00000
2.0000000E-01   2.0000000E-01  0.00000
2.0000000E-01   1.0000000E-01  0.00000
2.0000000E-01   0.0000000E+00  0.00000
3.0000000E-01   1.0000000E+00  0.00000
3.0000000E-01   9.0000000E-01  0.00000
3.0000000E-01   8.0000000E-01  0.00000
3.0000000E-01   7.0000000E-01  0.00000
3.0000000E-01   6.0000000E-01  0.00000
3.0000000E-01   5.0000000E-01  0.00000
3.0000000E-01   4.0000000E-01  0.00000
3.0000000E-01   3.0000000E-01  0.00000
3.0000000E-01   2.0000000E-01  0.00000
3.0000000E-01   1.0000000E-01  0.00000
3.0000000E-01   0.0000000E+00  0.00000
4.0000000E-01   1.0000000E+00  0.00000
4.0000000E-01   9.0000000E-01  0.00000
4.0000000E-01   8.0000000E-01  0.00000
4.0000000E-01   7.0000000E-01  0.00000
4.0000000E-01   6.0000000E-01  0.00000
4.0000000E-01   5.0000000E-01  0.00000
4.0000000E-01   4.0000000E-01  0.00000
4.0000000E-01   3.0000000E-01  0.00000
4.0000000E-01   2.0000000E-01  0.00000
4.0000000E-01   1.0000000E-01  0.00000
4.0000000E-01   0.0000000E+00  0.00000
5.0000000E-01   1.0000000E+00  0.00000
5.0000000E-01   9.0000000E-01  0.00000
5.0000000E-01   8.0000000E-01  0.00000
5.0000000E-01   7.0000000E-01  0.00000
5.0000000E-01   6.0000000E-01  0.00000
5.0000000E-01   5.0000000E-01  0.00000
5.0000000E-01   4.0000000E-01  0.00000
5.0000000E-01   3.0000000E-01  0.00000
5.0000000E-01   2.0000000E-01  0.00000
5.0000000E-01   1.0000000E-01  0.00000
5.0000000E-01   0.0000000E+00  0.00000
6.0000000E-01   1.0000000E+00  0.00000
6.0000000E-01   9.0000000E-01  0.00000
6.0000000E-01   8.0000000E-01  0.00000
6.0000000E-01   7.0000000E-01  0.00000
6.0000000E-01   6.0000000E-01  0.00000
6.0000000E-01   5.0000000E-01  0.00000
6.0000000E-01   4.0000000E-01  0.00000
6.0000000E-01   3.0000000E-01  0.00000
6.0000000E-01   2.0000000E-01  0.00000
6.0000000E-01   1.0000000E-01  0.00000
6.0000000E-01   0.0000000E+00  0.00000
7.0000000E-01   1.0000000E+00  0.00000
7.0000000E-01   9.0000000E-01  0.00000
7.0000000E-01   8.0000000E-01  0.00000
7.0000000E-01   7.0000000E-01  0.00000
7.0000000E-01   6.0000000E-01  0.00000
7.0000000E-01   5.0000000E-01  0.00000
7.0000000E-01   4.0000000E-01  0.00000
7.0000000E-01   3.0000000E-01  0.00000
7.0000000E-01   2.0000000E-01  0.00000
7.0000000E-01   1.0000000E-01  0.00000
7.0000000E-01   0.0000000E+00  0.00000
8.0000000E-01   1.0000000E+00  0.00000
8.0000000E-01   9.0000000E-01  0.00000
8.0000000E-01   8.0000000E-01  0.00000
8.0000000E-01   7.0000000E-01  0.00000
8.0000000E-01   6.0000000E-01  0.00000
8.0000000E-01   5.0000000E-01  0.00000
8.0000000E-01   4.0000000E-01  0.00000
8.0000000E-01   3.0000000E-01  0.00000
8.0000000E-01   2.0000000E-01  0.00000
8.0000000E-01   1.0000000E-01  0.00000
8.0000000E-01   0.0000000E+00  0.00000
9.0000000E-01   1.0000000E+00  0.00000
9.0000000E-01   9.0000000E-01  0.00000
9.0000000E-01   8.0000000E-01  0.00000
9.0000000E-01   7.0000000E-01  0.00000
9.0000000E-01   6.0000000E-01  0.00000
9.0000000E-01   5.0000000E-01  0.00000
9.0000000E-01   4.0000000E-01  0.00000
9.0000000E-01   3.0000000E-01  0.00000
9.0000000E-01   2.0000000E-01  0.00000
9.0000000E-01   1.0000000E-01  0.00000
9.0000000E-01   0.0000000E+00  0.00000
1.0000000E+00   1.0000000E+00  0.00000
1.0000000E+00   9.0000000E-01  0.00000
1.0000000E+00   8.0000000E-01  0.00000
1.0000000E+00   7.0000000E-01  0.00000
1.0000000E+00   6.0000000E-01  0.00000
1.0000000E+00   5.0000000E-01  0.00000
1.0000000E+00   4.0000000E-01  0.00000
1.0000000E+00   3.0000000E-01  0.00000
1.0000000E+00   2.0000000E-01  0.00000
1.0000000E+00   1.0000000E-01  0.00000
1.0000000E+00   0.0000000E+00  0.00000
1.1000000E+00   1.0000000E+00  0.00000
1.1000000E+00   9.0000000E-01  0.00000
1.1000000E+00   8.0000000E-01  0.00000
1.1000000E+00   7.0000000E-01  0.00000
1.1000000E+00   6.0000000E-01  0.00000
1.1000000E+00   5.0000000E-01  0.00000
1.1000000E+00   4.0000000E-01  0.00000
1.1000000E+00   3.0000000E-01  0.00000
1.1000000E+00   2.0000000E-01  0.00000
1.1000000E+00   1.0000000E-01  0.00000
1.1000000E+00   0.0000000E+00  0.00000
1.2000000E+00   1.0000000E+00  0.00000
1.2000000E+00   9.0000000E-01  0.00000
1.2000000E+00   8.0000000E-01  0.00000
1.2000000E+00   7.0000000E-01  0.00000
1.2000000E+00   6.0000000E-01  0.00000
1.2000000E+00   5.0000000E-01  0.00000
1.2000000E+00   4.0000000E-01  0.00000
1.2000000E+00   3.0000000E-01  0.00000
1.2000000E+00   2.0000000E-01  0.00000
1.2000000E+00   1.0000000E-01  0.00000
1.2000000E+00   0.0000000E+00  0.00000
1.3000000E+00   1.0000000E+00  0.00000
1.3000000E+00   9.0000000E-01  0.00000
1.3000000E+00   8.0000000E-01  0.00000
1.3000000E+00   7.0000000E-01  0.00000
1.3000000E+00   6.0000000E-01  0.00000
1.3000000E+00   5.0000000E-01  0.00000
1.3000000E+00   4.0000000E-01  0.00000
1.3000000E+00   3.0000000E-01  0.00000
1.3000000E+00   2.0000000E-01  0.00000
1.3000000E+00   1.0000000E-01  0.00000
1.3000000E+00   0.0000000E+00  0.00000
1.4000000E+00   1.0000000E+00  0.00000
1.4000000E+00   9.0000000E-01  0.00000
1.4000000E+00   8.0000000E-01  0.00000
1.4000000E+00   7.0000000E-01  0.00000
1.4000000E+00   6.0000000E-01  0.00000
1.4000000E+00   5.0000000E-01  0.00000
1.4000000E+00   4.0000000E-01  0.00000
1.4000000E+00   3.0000000E-01  0.00000
1.4000000E+00   2.0000000E-01  0.00000
1.4000000E+00   1.0000000E-01  0.00000
1.4000000E+00   0.0000000E+00  0.00000
1.5000000E+00   1.0000000E+00  0.00000
1.5000000E+00   9.0000000E-01  0.00000
1.5000000E+00   8.0000000E-01  0.00000
1.5000000E+00   7.0000000E-01  0.00000
1.5000000E+00   6.0000000E-01  0.00000
1.5000000E+00   5.0000000E-01  0.00000
1.5000000E+00   4.0000000E-01  0.00000
1.5000000E+00   3.0000000E-01  0.00000
1.5000000E+00   2.0000000E-01  0.00000
1.5000000E+00   1.0000000E-01  0.00000
1.5000000E+00   0.0000000E+00  0.00000
1.6000000E+00   1.0000000E+00  0.00000
1.6000000E+00   9.0000000E-01  0.00000
1.6000000E+00   8.0000000E-01  0.00000
1.6000000E+00   7.0000000E-01  0.00000
1.6000000E+00   6.0000000E-01  0.00000
1.6000000E+00   5.0000000E-01  0.00000
1.6000000E+00   4.0000000E-01  0.00000
1.6000000E+00   3.0000000E-01  0.00000
1.6000000E+00   2.0000000E-01  0.00000
1.6000000E+00   1.0000000E-01  0.00000
1.6000000E+00   0.0000000E+00  0.00000
1.7000000E+00   1.0000000E+00  0.00000
1.7000000E+00   9.0000000E-01  0.00000
1.7000000E+00   8.0000000E-01  0.00000
1.7000000E+00   7.0000000E-01  0.00000
1.7000000E+00   6.0000000E-01  0.00000
1.7000000E+00   5.0000000E-01  0.00000
1.7000000E+00   4.0000000E-01  0.00000
1.7000000E+00   3.0000000E-01  0.00000
1.7000000E+00   2.0000000E-01  0.00000
1.7000000E+00   1.0000000E-01  0.00000
1.7000000E+00   0.0000000E+00  0.00000
1.8000000E+00   1.0000000E+00  0.00000
1.8000000E+00   9.0000000E-01  0.00000
1.8000000E+00   8.0000000E-01  0.00000
1.8000000E+00   7.0000000E-01  0.00000
1.8000000E+00   6.0000000E-01  0.00000
1.8000000E+00   5.0000000E-01  0.00000
1.8000000E+00   4.0000000E-01  0.00000
1.8000000E+00   3.0000000E-01  0.00000
1.8000000E+00   2.0000000E-01  0.00000
1.8000000E+00   1.0000000E-01  0.00000
1.8000000E+00   0.0000000E+00  0.00000
1.9000000E+00   1.0000000E+00  0.00000
1.9000000E+00   9.0000000E-01  0.00000
1.9000000E+00   8.0000000E-01  0.00000
1.9000000E+00   7.0000000E-01  0.00000
1.9000000E+00   6.0000000E-01  0.00000
1.9000000E+00   5.0000000E-01  0.00000
1.9000000E+00   4.0000000E-01  0.00000
1.9000000E+00   3.0000000E-01  0.00000
1.9000000E+00   2.0000000E-01  0.00000
1.9000000E+00   1.0000000E-01  0.00000
1.9000000E+00   0.0000000E+00  0.00000
2.0000000E+00   1.0000000E+00  0.00000
2.0000000E+00   9.0000000E-01  0.00000
2.0000000E+00   8.0000000E-01  0.00000
2.0000000E+00   7.0000000E-01  0.00000
2.0000000E+00   6.0000000E-01  0.00000
2.0000000E+00   5.0000000E-01  0.00000
2.0000000E+00   4.0000000E-01  0.00000
2.0000000E+00   3.0000000E-01  0.00000
2.0000000E+00   2.0000000E-01  0.00000
2.0000000E+00   1.0000000E-01  0.00000
2.0000000E+00   0.0000000E+00  0.00000

CELLS    200  1000
4 1 12 11 0	   
4 2 13 12 1	   
4 3 14 13 2	   
4 4 15 14 3	   
4 5 16 15 4	   
4 6 17 16 5	   
4 7 18 17 6	   
4 8 19 18 7	   
4 9 20 19 8	   
4 10 21 20 9	   
4 12 23 22 11	   
4 13 24 23 12	   
4 14 25 24 13	   
4 15 26 25 14	   
4 16 27 26 15	   
4 17 28 27 16	   
4 18 29 28 17	   
4 19 30 29 18	   
4 20 31 30 19	   
4 21 32 31 20	   
4 23 34 33 22	   
4 24 35 34 23	   
4 25 36 35 24	   
4 26 37 36 25	   
4 27 38 37 26	   
4 28 39 38 27	   
4 29 40 39 28	   
4 30 41 40 29	   
4 31 42 41 30	   
4 32 43 42 31	   
4 34 45 44 33	   
4 35 46 45 34	   
4 36 47 46 35	   
4 37 48 47 36	   
4 38 49 48 37	   
4 39 50 49 38	   
4 40 51 50 39	   
4 41 52 51 40	   
4 42 53 52 41	   
4 43 54 53 42	   
4 45 56 55 44	   
4 46 57 56 45	   
4 47 58 57 46	   
4 48 59 58 47	   
4 49 60 59 48	   
4 50 61 60 49	   
4 51 62 61 50	   
4 52 63 62 51	   
4 53 64 63 52	   
4 54 65 64 53	   
4 56 67 66 55	   
4 57 68 67 56	   
4 58 69 68 57	   
4 59 70 69 58	   
4 60 71 70 59	   
4 61 72 71 60	   
4 62 73 72 61	   
4 63 74 73 62	   
4 64 75 74 63	   
4 65 76 75 64	   
4 67 78 77 66	   
4 68 79 78 67	   
4 69 80 79 68	   
4 70 81 80 69	   
4 71 82 81 70	   
4 72 83 82 71	   
4 73 84 83 72	   
4 74 85 84 73	   
4 75 86 85 74	   
4 76 87 86 75	   
4 78 89 88 77	   
4 79 90 89 78	   
4 80 91 90 79	   
4 81 92 91 80	   
4 82 93 92 81	   
4 83 94 93 82	   
4 84 95 94 83	   
4 85 96 95 84	   
4 86 97 96 85	   
4 87 98 97 86	   
4 89 100 99 88   
4 90 101 100 89  
4 91 102 101 90  
4 92 103 102 91  
4 93 104 103 92  
4 94 105 104 93  
4 95 106 105 94  
4 96 107 106 95  
4 97 108 107 96  
4 98 109 108 97  
4 100 111 110 99 
4 101 112 111 100
4 102 113 112 101
4 103 114 113 102
4 104 115 114 103
4 105 116 115 104
4 106 117 116 105
4 107 118 117 106
4 108 119 118 107
4 109 120 119 108
4 111 122 121 110
4 112 123 122 111
4 113 124 123 112
4 114 125 124 113
4 115 126 125 114
4 116 127 126 115
4 117 128 127 116
4 118 129 128 117
4 119 130 129 118
4 120 131 130 119
4 122 133 132 121
4 123 134 133 122
4 124 135 134 123
4 125 136 135 124
4 126 137 136 125
4 127 138 137 126
4 128 139 138 127
4 129 140 139 128
4 130 141 140 129
4 131 142 141 130
4 133 144 143 132
4 134 145 144 133
4 135 146 145 134
4 136 147 146 135
4 137 148 147 136
4 138 149 148 137
4 139 150 149 138
4 140 151 150 139
4 141 152 151 140
4 142 153 152 141
4 144 155 154 143
4 145 156 155 144
4 146 157 156 145
4 147 158 157 146
4 148 159 158 147
4 149 160 159 148
4 150 161 160 149
4 151 162 161 150
4 152 163 162 151
4 153 164 163 152
4 155 166 165 154
4 156 167 166 155
4 157 168 167 156
4 158 169 168 157
4 159 170 169 158
4 160 171 170 159
4 161 172 171 160
4 162 173 172 161
4 163 174 173 162
4 164 175 174 163
4 166 177 176 165
4 167 178 177 166
4 168 179 178 167
4 169 180 179 168
4 170 181 180 169
4 171 182 181 170
4 172 183 182 171
4 173 184 183 172
4 174 185 184 173
4 175 186 185 174
4 177 188 187 176
4 178 189 188 177
4 179 190 189 178
4 180 191 190 179
4 181 192 191 180
4 182 193 192 181
4 183 194 193 182
4 184 195 194 183
4 185 196 195 184
4 186 197 196 185
4 188 199 198 187
4 189 200 199 188
4 190 201 200 189
4 191 202 201 190
4 192 203 202 191
4 193 204 203 192
4 194 205 204 193
4 195 206 205 194
4 196 207 206 195
4 197 208 207 196
4 199 210 209 198
4 200 211 210 199
4 201 212 211 200
4 202 213 212 201
4 203 214 213 202
4 204 215 214 203
4 205 216 215 204
4 206 217 216 205
4 207 218 217 206
4 208 219 218 207
4 210 221 220 209
4 211 222 221 210
4 212 223 222 211
4 213 224 223 212
4 214 225 224 213
4 215 226 225 214
4 216 227 226 215
4 217 228 227 216
4 218 229 228 217
4 219 230 229 218

CELL_TYPES  200
 9
 9
 9
 9
 9
 9
 9
 9
 9
 9
 9
 9
 9
 9
 9
 9
 9
 9
 9
 9
 9
 9
 9
 9
 9
 9
 9
 9
 9
 9
 9
 9
 9
 9
 9
 9
 9
 9
 9
 9
 9
 9
 9
 9
 9
 9
 9
 9
 9
 9
 9
 9
 9
 9
 9
 9
 9
 9
 9
 9
 9
 9
 9
 9
 9
 9
 9
 9
 9
 9
 9
 9
 9
 9
 9
 9
 9
 9
 9
 9
 9
 9
 9
 9
 9
 9
 9
 9
 9
 9
 9
 9
 9
 9
 9
 9
 9
 9
 9
 9
 9
 9
 9
 9
 9
 9
 9
 9
 9
 9
 9
 9
 9
 9
 9
 9
 9
 9
 9
 9
 9
 9
 9
 9
 9
 9
 9
 9
 9
 9
 9
 9
 9
 9
 9
 9
 9
 9
 9
 9
 9
 9
 9
 9
 9
 9
 9
 9
 9
 9
 9
 9
 9
 9
 9
 9
 9
 9
 9
 9
 9
 9
 9
 9
 9
 9
 9
 9
 9
 9
 9
 9
 9
 9
 9
 9
 9
 9
 9
 9
 9
 9
 9
 9
 9
 9
 9
 9
 9
 9
 9
 9
 9
 9
 9
 9
 9
 9
 9
 9
POINT_DATA 231
SCALARS cc double 1
LOOKUP_TABLE default
 5.4596409E-10
 6.1642818E-10
 8.2987237E-10
 1.1893422E-09
 1.6905505E-09
 2.3113112E-09
 3.0032889E-09
 3.6909697E-09
 4.2809796E-09
 4.6809735E-09
 4.8227026E-09
 1.6547185E-09
 1.8940233E-09
 2.6265308E-09
 3.8836110E-09
 5.6789160E-09
 7.9610543E-09
 1.0570541E-08
 1.3223673E-08
 1.5542730E-08
 1.7135740E-08
 1.7704051E-08
 5.5697209E-09
 6.4987526E-09
 9.3838949E-09
 1.4464066E-08
 2.1957575E-08
 3.1818371E-08
 4.3477731E-08
 5.5691673E-08
 6.6630317E-08
 7.4274552E-08
 7.7026125E-08
 1.8483752E-08
 2.2018335E-08
 3.3167241E-08
 5.3344010E-08
 8.4140417E-08
 1.2616982E-07
 1.7765435E-07
 2.3332973E-07
 2.8451311E-07
 3.2095859E-07
 3.3420795E-07
 5.8481968E-08
 7.1210574E-08
 1.1203188E-07
 1.8808926E-07
 3.0845520E-07
 4.7922711E-07
 6.9657364E-07
 9.4002285E-07
 1.1705845E-06
 1.3384099E-06
 1.4001629E-06
 1.7464694E-07
 2.1760121E-07
 3.5776528E-07
 6.2692402E-07
 1.0692147E-06
 1.7229351E-06
 2.5901267E-06
 3.6006242E-06
 4.5917153E-06
 5.3331326E-06
 5.6103932E-06
 4.9020226E-07
 6.2534750E-07
 1.0740525E-06
 1.9619691E-06
 3.4766922E-06
 5.8102775E-06
 9.0436234E-06
 1.2980105E-05
 1.7004755E-05
 2.0123725E-05
 2.1317825E-05
 1.2903345E-06
 1.6854754E-06
 3.0191199E-06
 5.7334100E-06
 1.0528308E-05
 1.8211109E-05
 2.9323113E-05
 4.3491425E-05
 5.8688644E-05
 7.1017115E-05
 7.5908805E-05
 3.1822115E-06
 4.2539931E-06
 7.9241199E-06
 1.5577271E-05
 2.9504135E-05
 5.2580297E-05
 8.7251158E-05
 1.3344805E-04
 1.8558672E-04
 2.3031970E-04
 2.4903235E-04
 7.3542236E-06
 1.0050679E-05
 1.9391473E-05
 3.9235860E-05
 7.6144483E-05
 1.3879934E-04
 2.3562932E-04
 3.6927535E-04
 5.2719813E-04
 6.7098817E-04
 7.3541774E-04
 1.5947354E-05
 2.2248521E-05
 4.4247712E-05
 9.1522808E-05
 1.8048701E-04
 3.3329023E-04
 5.7272311E-04
 9.0974166E-04
 1.3204287E-03
 1.7130851E-03
 1.9016783E-03
 3.2522782E-05
 4.6243205E-05
 9.4305028E-05
 1.9790900E-04
 3.9286647E-04
 7.2668410E-04
 1.2476883E-03
 1.9802423E-03
 2.8794549E-03
 3.7599079E-03
 4.2029486E-03
 6.2586752E-05
 9.0551591E-05
 1.8838636E-04
 3.9801068E-04
 7.8743451E-04
 1.4414995E-03
 2.4386507E-03
 3.8071275E-03
 5.4535147E-03
 7.0514700E-03
 7.8624662E-03
 1.1409265E-04
 1.6784771E-04
 3.5458435E-04
 7.4853871E-04
 1.4614462E-03
 2.6165786E-03
 4.3032761E-03
 6.5117739E-03
 9.0478898E-03
 1.1411889E-02
 1.2577102E-02
 1.9810019E-04
 2.9616412E-04
 6.3339284E-04
 1.3266934E-03
 2.5319979E-03
 4.3847623E-03
 6.9275246E-03
 1.0039834E-02
 1.3376915E-02
 1.6291617E-02
 1.7650097E-02
 3.2883731E-04
 5.0187962E-04
 1.0835676E-03
 2.2371304E-03
 4.1348843E-03
 6.8541789E-03
 1.0299356E-02
 1.4174441E-02
 1.7993206E-02
 2.1072609E-02
 2.2413209E-02
 5.2543326E-04
 8.1862812E-04
 1.7942052E-03
 3.6284778E-03
 6.4271037E-03
 1.0091067E-02
 1.4302468E-02
 1.8599794E-02
 2.2458292E-02
 2.5315637E-02
 2.6476234E-02
 8.2306038E-04
 1.3396188E-03
 2.9300463E-03
 5.7208935E-03
 9.5769544E-03
 1.4076098E-02
 1.8699696E-02
 2.2956295E-02
 2.6434827E-02
 2.8804046E-02
 2.9705546E-02
 1.2019734E-03
 2.0331027E-03
 4.7027839E-03
 8.8343732E-03
 1.3664521E-02
 1.8570750E-02
 2.3094095E-02
 2.6875943E-02
 2.9705193E-02
 3.1482010E-02
 3.2118209E-02
 1.8898690E-03
 3.7767829E-03
 8.1149823E-03
 1.3116688E-02
 1.8127458E-02
 2.2851475E-02
 2.6891650E-02
 3.0060591E-02
 3.2171147E-02
 3.3393391E-02
 3.3809327E-02
 2.9795843E-03
 5.6213530E-03
 1.0704604E-02
 1.5689996E-02
 2.0429322E-02
 2.4806695E-02
 2.9705793E-02
 3.2375598E-02
 3.3876343E-02
 3.4640080E-02
 3.4912050E-02
