/*--------------------------------*- C++ -*----------------------------------*\
  =========                 |
  \\      /  F ield         | OpenFOAM: The Open Source CFD Toolbox
   \\    /   O peration     | Website:  https://openfoam.org
    \\  /    A nd           | Version:  7
     \\/     M anipulation  |
\*---------------------------------------------------------------------------*/
FoamFile
{
    version     2.0;
    format      ascii;
    class       volScalarField;
    location    "1000";
    object      C;
}
// * * * * * * * * * * * * * * * * * * * * * * * * * * * * * * * * * * * * * //

dimensions      [0 0 0 0 0 0 0];

internalField   nonuniform List<scalar> 
200
(
0.0757325
0.00147181
1.90108e-05
1.83952e-07
1.4232e-09
9.17335e-12
5.06743e-14
2.44925e-16
1.05226e-18
4.06876e-21
1.4303e-23
4.60923e-26
1.37118e-28
3.78798e-31
9.76765e-34
2.36145e-36
5.37373e-39
1.15501e-41
2.35209e-44
4.54248e-47
0.0757325
0.00147181
1.90108e-05
1.83952e-07
1.4232e-09
9.17335e-12
5.06743e-14
2.44925e-16
1.05226e-18
4.06876e-21
1.4303e-23
4.60923e-26
1.37118e-28
3.78798e-31
9.76765e-34
2.36145e-36
5.37373e-39
1.15501e-41
2.35209e-44
4.54248e-47
0.0757325
0.00147181
1.90108e-05
1.83952e-07
1.4232e-09
9.17335e-12
5.06743e-14
2.44925e-16
1.05226e-18
4.06876e-21
1.4303e-23
4.60923e-26
1.37118e-28
3.78798e-31
9.76765e-34
2.36145e-36
5.37373e-39
1.15501e-41
2.35209e-44
4.54248e-47
0.0757325
0.00147181
1.90108e-05
1.83952e-07
1.4232e-09
9.17335e-12
5.06743e-14
2.44925e-16
1.05226e-18
4.06876e-21
1.4303e-23
4.60923e-26
1.37118e-28
3.78798e-31
9.76765e-34
2.36145e-36
5.37373e-39
1.15501e-41
2.35209e-44
4.54248e-47
0.0757325
0.00147181
1.90108e-05
1.83952e-07
1.4232e-09
9.17335e-12
5.06743e-14
2.44925e-16
1.05226e-18
4.06876e-21
1.4303e-23
4.60923e-26
1.37118e-28
3.78798e-31
9.76765e-34
2.36145e-36
5.37373e-39
1.15501e-41
2.35209e-44
4.54248e-47
0.0757325
0.00147181
1.90108e-05
1.83952e-07
1.4232e-09
9.17335e-12
5.06743e-14
2.44925e-16
1.05226e-18
4.06876e-21
1.4303e-23
4.60923e-26
1.37118e-28
3.78798e-31
9.76765e-34
2.36145e-36
5.37373e-39
1.15501e-41
2.35209e-44
4.54248e-47
0.0757325
0.00147181
1.90108e-05
1.83952e-07
1.4232e-09
9.17335e-12
5.06743e-14
2.44925e-16
1.05226e-18
4.06876e-21
1.4303e-23
4.60923e-26
1.37118e-28
3.78798e-31
9.76765e-34
2.36145e-36
5.37373e-39
1.15501e-41
2.35209e-44
4.54248e-47
0.0757325
0.00147181
1.90108e-05
1.83952e-07
1.4232e-09
9.17335e-12
5.06743e-14
2.44925e-16
1.05226e-18
4.06876e-21
1.4303e-23
4.60923e-26
1.37118e-28
3.78798e-31
9.76765e-34
2.36145e-36
5.37373e-39
1.15501e-41
2.35209e-44
4.54248e-47
0.0757325
0.00147181
1.90108e-05
1.83952e-07
1.4232e-09
9.17335e-12
5.06743e-14
2.44925e-16
1.05226e-18
4.06876e-21
1.4303e-23
4.60923e-26
1.37118e-28
3.78798e-31
9.76765e-34
2.36145e-36
5.37373e-39
1.15501e-41
2.35209e-44
4.54248e-47
0.0757325
0.00147181
1.90108e-05
1.83952e-07
1.4232e-09
9.17335e-12
5.06743e-14
2.44925e-16
1.05226e-18
4.06876e-21
1.4303e-23
4.60923e-26
1.37118e-28
3.78798e-31
9.76765e-34
2.36145e-36
5.37373e-39
1.15501e-41
2.35209e-44
4.54248e-47
)
;

boundaryField
{
    x0
    {
        type            fixedValue;
        value           uniform 1;
    }
    x1
    {
        type            zeroGradient;
    }
    y0
    {
        type            zeroGradient;
    }
    y1
    {
        type            zeroGradient;
    }
    z0
    {
        type            empty;
    }
    z1
    {
        type            empty;
    }
}


// ************************************************************************* //
