/*--------------------------------*- C++ -*----------------------------------*\
  =========                 |
  \\      /  F ield         | OpenFOAM: The Open Source CFD Toolbox
   \\    /   O peration     | Website:  https://openfoam.org
    \\  /    A nd           | Version:  7
     \\/     M anipulation  |
\*---------------------------------------------------------------------------*/
FoamFile
{
    version     2.0;
    format      ascii;
    class       volScalarField;
    location    "1000";
    object      C_0;
}
// * * * * * * * * * * * * * * * * * * * * * * * * * * * * * * * * * * * * * //

dimensions      [0 0 0 0 0 0 0];

internalField   nonuniform List<scalar> 
200
(
0.075725
0.00147151
1.90052e-05
1.83879e-07
1.42249e-09
9.16785e-12
5.06389e-14
2.44729e-16
1.05131e-18
4.06469e-21
1.42873e-23
4.6037e-26
1.3694e-28
3.78268e-31
9.75302e-34
2.35768e-36
5.36461e-39
1.15294e-41
2.34763e-44
4.53341e-47
0.075725
0.00147151
1.90052e-05
1.83879e-07
1.42249e-09
9.16785e-12
5.06389e-14
2.44729e-16
1.05131e-18
4.06469e-21
1.42873e-23
4.6037e-26
1.3694e-28
3.78268e-31
9.75302e-34
2.35768e-36
5.36461e-39
1.15294e-41
2.34763e-44
4.53341e-47
0.075725
0.00147151
1.90052e-05
1.83879e-07
1.42249e-09
9.16785e-12
5.06389e-14
2.44729e-16
1.05131e-18
4.06469e-21
1.42873e-23
4.6037e-26
1.3694e-28
3.78268e-31
9.75302e-34
2.35768e-36
5.36461e-39
1.15294e-41
2.34763e-44
4.53341e-47
0.075725
0.00147151
1.90052e-05
1.83879e-07
1.42249e-09
9.16785e-12
5.06389e-14
2.44729e-16
1.05131e-18
4.06469e-21
1.42873e-23
4.6037e-26
1.3694e-28
3.78268e-31
9.75302e-34
2.35768e-36
5.36461e-39
1.15294e-41
2.34763e-44
4.53341e-47
0.075725
0.00147151
1.90052e-05
1.83879e-07
1.42249e-09
9.16785e-12
5.06389e-14
2.44729e-16
1.05131e-18
4.06469e-21
1.42873e-23
4.6037e-26
1.3694e-28
3.78268e-31
9.75302e-34
2.35768e-36
5.36461e-39
1.15294e-41
2.34763e-44
4.53341e-47
0.075725
0.00147151
1.90052e-05
1.83879e-07
1.42249e-09
9.16785e-12
5.06389e-14
2.44729e-16
1.05131e-18
4.06469e-21
1.42873e-23
4.6037e-26
1.3694e-28
3.78268e-31
9.75302e-34
2.35768e-36
5.36461e-39
1.15294e-41
2.34763e-44
4.53341e-47
0.075725
0.00147151
1.90052e-05
1.83879e-07
1.42249e-09
9.16785e-12
5.06389e-14
2.44729e-16
1.05131e-18
4.06469e-21
1.42873e-23
4.6037e-26
1.3694e-28
3.78268e-31
9.75302e-34
2.35768e-36
5.36461e-39
1.15294e-41
2.34763e-44
4.53341e-47
0.075725
0.00147151
1.90052e-05
1.83879e-07
1.42249e-09
9.16785e-12
5.06389e-14
2.44729e-16
1.05131e-18
4.06469e-21
1.42873e-23
4.6037e-26
1.3694e-28
3.78268e-31
9.75302e-34
2.35768e-36
5.36461e-39
1.15294e-41
2.34763e-44
4.53341e-47
0.075725
0.00147151
1.90052e-05
1.83879e-07
1.42249e-09
9.16785e-12
5.06389e-14
2.44729e-16
1.05131e-18
4.06469e-21
1.42873e-23
4.6037e-26
1.3694e-28
3.78268e-31
9.75302e-34
2.35768e-36
5.36461e-39
1.15294e-41
2.34763e-44
4.53341e-47
0.075725
0.00147151
1.90052e-05
1.83879e-07
1.42249e-09
9.16785e-12
5.06389e-14
2.44729e-16
1.05131e-18
4.06469e-21
1.42873e-23
4.6037e-26
1.3694e-28
3.78268e-31
9.75302e-34
2.35768e-36
5.36461e-39
1.15294e-41
2.34763e-44
4.53341e-47
)
;

boundaryField
{
    x0
    {
        type            fixedValue;
        value           uniform 1;
    }
    x1
    {
        type            zeroGradient;
    }
    y0
    {
        type            zeroGradient;
    }
    y1
    {
        type            zeroGradient;
    }
    z0
    {
        type            empty;
    }
    z1
    {
        type            empty;
    }
}


// ************************************************************************* //
