/*--------------------------------*- C++ -*----------------------------------*\
  =========                 |
  \\      /  F ield         | OpenFOAM: The Open Source CFD Toolbox
   \\    /   O peration     | Website:  https://openfoam.org
    \\  /    A nd           | Version:  7
     \\/     M anipulation  |
\*---------------------------------------------------------------------------*/
FoamFile
{
    version     2.0;
    format      ascii;
    class       volScalarField;
    location    "330000";
    object      C;
}
// * * * * * * * * * * * * * * * * * * * * * * * * * * * * * * * * * * * * * //

dimensions      [0 0 0 0 0 0 0];

internalField   nonuniform List<scalar> 
200
(
-3.77122e-40
7.06659e-38
-1.25791e-35
2.1485e-33
-3.52217e-31
5.55136e-29
-8.44309e-27
1.24749e-24
-1.81152e-22
2.63723e-20
-3.98632e-18
6.68802e-16
-1.44648e-13
6.79383e-11
2.96914e-08
2.78679e-06
0.000103271
0.00167056
0.0115426
0.0333469
-2.43767e-41
4.60557e-39
-8.26747e-37
1.42389e-34
-2.35288e-32
3.73459e-30
-5.7098e-28
8.45308e-26
-1.22286e-23
1.75555e-21
-2.56836e-19
4.01898e-17
-7.42884e-15
2.12809e-12
4.59918e-09
6.09996e-07
2.93221e-05
0.000629356
0.00623327
0.0267101
7.37372e-42
-1.4171e-39
2.58574e-37
-4.52192e-35
7.57647e-33
-1.21691e-30
1.87715e-28
-2.79149e-26
4.02915e-24
-5.71006e-22
8.10203e-20
-1.19059e-17
1.92871e-15
-3.92907e-13
1.47907e-10
5.60879e-08
4.72787e-06
0.0001652
0.00272916
0.0197307
1.52179e-43
-2.54468e-41
3.90642e-39
-5.47259e-37
6.7606e-35
-6.75158e-33
3.6664e-31
5.25975e-29
-2.40739e-26
5.87883e-24
-1.19394e-21
2.26008e-19
-4.29051e-17
8.89226e-15
-2.32944e-12
1.14053e-09
2.7649e-07
2.03049e-05
0.000726801
0.0126901
-6.98747e-43
1.34703e-40
-2.44315e-38
4.19994e-36
-6.82161e-34
1.04332e-31
-1.49726e-29
2.009e-27
-2.51223e-25
2.92105e-23
-3.1573e-21
3.18324e-19
-3.01831e-17
2.71754e-15
-2.29601e-13
1.51246e-11
2.16525e-09
9.23813e-07
4.83071e-05
0.00273691
-1.00021e-41
2.0364e-39
-3.91383e-37
7.15209e-35
-1.23898e-32
2.02763e-30
-3.12207e-28
4.50132e-26
-6.04221e-24
7.49923e-22
-8.53426e-20
8.81417e-18
-8.15737e-16
6.65943e-14
-4.70334e-12
2.80698e-10
-1.37786e-08
5.46629e-07
-1.46631e-05
0.000480374
-1.28928e-41
2.73068e-39
-5.4575e-37
1.03592e-34
-1.86083e-32
3.14912e-30
-4.99315e-28
7.36686e-26
-1.00279e-23
1.24609e-21
-1.39506e-19
1.38457e-17
-1.19447e-15
8.74988e-14
-5.29633e-12
2.56889e-10
-9.64961e-09
2.69919e-07
-5.30687e-06
6.66595e-05
-5.22034e-42
1.14519e-39
-2.36975e-37
4.65286e-35
-8.6324e-33
1.50536e-30
-2.45095e-28
3.69442e-26
-5.10118e-24
6.36753e-22
-7.06932e-20
6.84387e-18
-5.64297e-16
3.85537e-14
-2.11529e-12
8.99701e-11
-2.84948e-09
6.39209e-08
-9.38451e-07
7.31714e-06
-8.75734e-43
1.97945e-40
-4.22061e-38
8.53512e-36
-1.62965e-33
2.92071e-31
-4.8769e-29
7.51507e-27
-1.05602e-24
1.33328e-22
-1.48523e-20
1.42825e-18
-1.15551e-16
7.63486e-15
-3.98287e-13
1.57826e-11
-4.53766e-10
8.90942e-09
-1.08075e-07
6.22481e-07
-6.44192e-44
1.48404e-41
-3.22567e-39
6.64937e-37
-1.29389e-34
2.36223e-32
-4.01453e-30
6.28774e-28
-8.96272e-26
1.14472e-23
-1.28534e-21
1.24025e-19
-1.00138e-17
6.56106e-16
-3.36879e-14
1.30199e-12
-3.60643e-11
6.69151e-10
-7.39608e-09
3.55544e-08
)
;

boundaryField
{
    x0
    {
        type            fixedValue;
        value           uniform 0;
    }
    x1
    {
        type            inletOutlet;
        inletValue      uniform 0.0357;
        value           nonuniform List<scalar> 10(0.0357 0.0357 0.0357 0.0357 0.00273691 0.000480374 6.66595e-05 7.31714e-06 6.22481e-07 3.55544e-08);
    }
    y0
    {
        type            zeroGradient;
    }
    y1
    {
        type            zeroGradient;
    }
    z0
    {
        type            empty;
    }
    z1
    {
        type            empty;
    }
}


// ************************************************************************* //
