/*--------------------------------*- C++ -*----------------------------------*\
  =========                 |
  \\      /  F ield         | OpenFOAM: The Open Source CFD Toolbox
   \\    /   O peration     | Website:  https://openfoam.org
    \\  /    A nd           | Version:  7
     \\/     M anipulation  |
\*---------------------------------------------------------------------------*/
FoamFile
{
    version     2.0;
    format      ascii;
    class       volScalarField;
    location    "330000";
    object      C_0;
}
// * * * * * * * * * * * * * * * * * * * * * * * * * * * * * * * * * * * * * //

dimensions      [0 0 0 0 0 0 0];

internalField   nonuniform List<scalar> 
200
(
-3.75764e-40
7.04239e-38
-1.25383e-35
2.14192e-33
-3.51201e-31
5.53635e-29
-8.42177e-27
1.24456e-24
-1.80759e-22
2.63198e-20
-3.97909e-18
6.67706e-16
-1.44435e-13
6.7848e-11
2.96587e-08
2.78429e-06
0.000103199
0.00166975
0.0115395
0.0333445
-2.42844e-41
4.58894e-39
-8.23909e-37
1.41926e-34
-2.34564e-32
3.72377e-30
-5.69427e-28
8.43158e-26
-1.21997e-23
1.7517e-21
-2.56318e-19
4.01156e-17
-7.41636e-15
2.12483e-12
4.59395e-09
6.09428e-07
2.93007e-05
0.000629025
0.0062313
0.0267073
7.34674e-42
-1.41216e-39
2.57719e-37
-4.50777e-35
7.5541e-33
-1.21353e-30
1.87227e-28
-2.78473e-26
4.02009e-24
-5.69822e-22
8.08662e-20
-1.18853e-17
1.9257e-15
-3.92356e-13
1.47721e-10
5.60318e-08
4.72415e-06
0.000165104
0.00272813
0.0197278
1.51615e-43
-2.53568e-41
3.89324e-39
-5.45497e-37
6.73975e-35
-6.73128e-33
3.65428e-31
5.25105e-29
-2.40257e-26
5.86743e-24
-1.19176e-21
2.25625e-19
-4.28383e-17
8.87957e-15
-2.32641e-12
1.13917e-09
2.76235e-07
2.0291e-05
0.000726463
0.0126874
-6.96045e-43
1.34206e-40
-2.4346e-38
4.18603e-36
-6.80031e-34
1.04026e-31
-1.49316e-29
2.0039e-27
-2.50636e-25
2.91484e-23
-3.15127e-21
3.17786e-19
-3.01387e-17
2.71413e-15
-2.29361e-13
1.51133e-11
2.16197e-09
9.2305e-07
4.82736e-05
0.00273595
-9.96247e-42
2.02869e-39
-3.89972e-37
7.1276e-35
-1.23496e-32
2.02142e-30
-3.11307e-28
4.48916e-26
-6.02699e-24
7.48171e-22
-8.51588e-20
8.79679e-18
-8.14278e-16
6.64875e-14
-4.69666e-12
2.80351e-10
-1.37642e-08
5.46158e-07
-1.46536e-05
0.000480127
-1.28394e-41
2.71987e-39
-5.43688e-37
1.0322e-34
-1.85447e-32
3.13892e-30
-4.97788e-28
7.34566e-26
-1.00008e-23
1.24296e-21
-1.39181e-19
1.38159e-17
-1.19212e-15
8.73426e-14
-5.28785e-12
2.56525e-10
-9.63772e-09
2.69637e-07
-5.3023e-06
6.66139e-05
-5.19781e-42
1.14045e-39
-2.36037e-37
4.63529e-35
-8.60136e-33
1.50022e-30
-2.44303e-28
3.68314e-26
-5.08652e-24
6.3504e-22
-7.05158e-20
6.82794e-18
-5.63086e-16
3.8478e-14
-2.11152e-12
8.98265e-11
-2.84546e-09
6.38425e-08
-9.37474e-07
7.3109e-06
-8.718e-43
1.97091e-40
-4.20316e-38
8.50138e-36
-1.6235e-33
2.91022e-31
-4.86026e-29
7.49079e-27
-1.0528e-24
1.32946e-22
-1.48124e-20
1.42467e-18
-1.15282e-16
7.61853e-15
-3.97508e-13
1.57547e-11
-4.53045e-10
8.89693e-09
-1.07943e-07
6.21847e-07
-6.4118e-44
1.47737e-41
-3.21175e-39
6.62187e-37
-1.28878e-34
2.35332e-32
-4.00011e-30
6.26629e-28
-8.93377e-26
1.14123e-23
-1.28166e-21
1.23692e-19
-9.98875e-18
6.54586e-16
-3.36161e-14
1.29946e-12
-3.60008e-11
6.68097e-10
-7.38584e-09
3.55125e-08
)
;

boundaryField
{
    x0
    {
        type            fixedValue;
        value           uniform 0;
    }
    x1
    {
        type            inletOutlet;
        inletValue      uniform 0.0357;
        value           nonuniform List<scalar> 10(0.0357 0.0357 0.0357 0.0357 0.00273595 0.000480127 6.66139e-05 7.3109e-06 6.21847e-07 3.55125e-08);
    }
    y0
    {
        type            zeroGradient;
    }
    y1
    {
        type            zeroGradient;
    }
    z0
    {
        type            empty;
    }
    z1
    {
        type            empty;
    }
}


// ************************************************************************* //
