/*--------------------------------*- C++ -*----------------------------------*\
  =========                 |
  \\      /  F ield         | OpenFOAM: The Open Source CFD Toolbox
   \\    /   O peration     | Website:  https://openfoam.org
    \\  /    A nd           | Version:  7
     \\/     M anipulation  |
\*---------------------------------------------------------------------------*/
FoamFile
{
    version     2.0;
    format      ascii;
    class       surfaceScalarField;
    location    "330000";
    object      phi;
}
// * * * * * * * * * * * * * * * * * * * * * * * * * * * * * * * * * * * * * //

dimensions      [0 3 -1 0 0 0 0];

internalField   nonuniform List<scalar> 
370
(
6.56106e-06
3.89401e-08
6.5183e-06
4.27572e-08
6.46754e-06
5.07673e-08
6.40378e-06
6.37599e-08
6.32076e-06
8.30183e-08
6.21031e-06
1.1045e-07
6.06152e-06
1.48787e-07
5.85965e-06
2.01873e-07
5.58455e-06
2.75098e-07
5.2085e-06
3.76045e-07
4.69301e-06
5.15498e-07
3.98385e-06
7.09155e-07
3.00308e-06
9.80769e-07
1.63443e-06
1.36865e-06
-3.06512e-07
1.94094e-06
-3.14165e-06
2.83513e-06
-7.47946e-06
4.33781e-06
-1.41101e-05
6.63063e-06
-2.14706e-05
7.36055e-06
1.24845e-06
6.56488e-06
7.40631e-08
6.52631e-06
8.13214e-08
6.48053e-06
9.6552e-08
6.42303e-06
1.21254e-07
6.34819e-06
1.57863e-07
6.24864e-06
2.09996e-07
6.11461e-06
2.82823e-07
5.93287e-06
3.83605e-07
5.6855e-06
5.22476e-07
5.34796e-06
7.13583e-07
4.88666e-06
9.76791e-07
4.25547e-06
1.34035e-06
3.39097e-06
1.84527e-06
2.20673e-06
2.5529e-06
5.88857e-07
3.55881e-06
-1.59378e-06
5.01777e-06
-4.42844e-06
7.17247e-06
-7.96493e-06
1.01671e-05
-1.27844e-05
1.218e-05
5.73629e-06
6.57214e-06
1.01928e-07
6.54154e-06
1.11913e-07
6.50523e-06
1.32865e-07
6.45964e-06
1.66842e-07
6.40032e-06
2.17184e-07
6.32147e-06
2.88848e-07
6.21539e-06
3.88905e-07
6.07174e-06
5.2725e-07
5.8766e-06
7.17619e-07
5.61117e-06
9.79018e-07
5.25023e-06
1.33773e-06
4.76038e-06
1.8302e-06
4.09859e-06
2.50706e-06
3.21264e-06
3.43885e-06
2.04805e-06
4.7234e-06
5.72596e-07
6.49322e-06
-1.16776e-06
8.91283e-06
-3.0942e-06
1.20936e-05
-6.11155e-06
1.51973e-05
1.08941e-05
6.58212e-06
1.19807e-07
6.5625e-06
1.31539e-07
6.53921e-06
1.56153e-07
6.50999e-06
1.96063e-07
6.47199e-06
2.55182e-07
6.42153e-06
3.39309e-07
6.35373e-06
4.56697e-07
6.26211e-06
6.18869e-07
6.138e-06
8.41734e-07
5.96988e-06
1.14714e-06
5.74269e-06
1.56492e-06
5.43724e-06
2.13564e-06
5.03039e-06
2.91391e-06
4.4972e-06
3.97203e-06
3.81789e-06
5.40272e-06
2.99393e-06
7.31718e-06
2.07609e-06
9.83067e-06
1.1538e-06
1.30158e-05
-2.78548e-07
1.66297e-05
1.63837e-05
6.59385e-06
1.25954e-07
6.58711e-06
1.38283e-07
6.57912e-06
1.64147e-07
6.5691e-06
2.06076e-07
6.55611e-06
2.68172e-07
6.53892e-06
3.56507e-07
6.5159e-06
4.79708e-07
6.48498e-06
6.49794e-07
6.4434e-06
8.83311e-07
6.38767e-06
1.20287e-06
6.31341e-06
1.63918e-06
6.21551e-06
2.23355e-06
6.08851e-06
3.04091e-06
5.92788e-06
4.13266e-06
5.73235e-06
5.59824e-06
5.50752e-06
7.54201e-06
5.2686e-06
1.00696e-05
5.03136e-06
1.32531e-05
4.60247e-06
1.70586e-05
2.03379e-05
6.60618e-06
1.19772e-07
6.61297e-06
1.31491e-07
6.62105e-06
1.56074e-07
6.6312e-06
1.95922e-07
6.64445e-06
2.54925e-07
6.66212e-06
3.38838e-07
6.68599e-06
4.55834e-07
6.7185e-06
6.17287e-07
6.76297e-06
8.38842e-07
6.82397e-06
1.14187e-06
6.90778e-06
1.55537e-06
7.02286e-06
2.11847e-06
7.18027e-06
2.8835e-06
7.39346e-06
3.91947e-06
7.67612e-06
5.31558e-06
8.0351e-06
7.18303e-06
8.45259e-06
9.65211e-06
8.84811e-06
1.28576e-05
8.99567e-06
1.6911e-05
2.16323e-05
6.6179e-06
1.01872e-07
6.63756e-06
1.11836e-07
6.66089e-06
1.32736e-07
6.6902e-06
1.66612e-07
6.72836e-06
2.16767e-07
6.77911e-06
2.88085e-07
6.84744e-06
3.87504e-07
6.94005e-06
5.24679e-07
7.06599e-06
7.12905e-07
7.23747e-06
9.70382e-07
7.47089e-06
1.32195e-06
7.78789e-06
1.80147e-06
8.21625e-06
2.45514e-06
8.78957e-06
3.34615e-06
9.54357e-06
4.56158e-06
1.05042e-05
6.22242e-06
1.16583e-05
8.49796e-06
1.28943e-05
1.16216e-05
1.39153e-05
1.589e-05
2.15135e-05
6.62786e-06
7.40069e-08
6.65846e-06
8.12437e-08
6.69477e-06
9.64231e-08
6.74036e-06
1.21025e-07
6.79968e-06
1.57446e-07
6.87853e-06
2.09231e-07
6.98462e-06
2.81418e-07
7.12828e-06
3.8102e-07
7.32347e-06
5.17716e-07
7.58904e-06
7.04807e-07
7.95041e-06
9.60583e-07
8.44155e-06
1.31033e-06
9.10726e-06
1.78943e-06
1.0005e-05
2.44843e-06
1.12044e-05
3.36217e-06
1.27797e-05
4.6471e-06
1.47821e-05
6.49561e-06
1.71604e-05
9.24325e-06
1.95668e-05
1.34836e-05
2.01448e-05
6.6351e-06
3.89054e-08
6.67364e-06
4.27092e-08
6.71937e-06
5.06876e-08
6.77678e-06
6.36182e-08
6.85146e-06
8.27602e-08
6.95072e-06
1.09977e-07
7.08422e-06
1.47915e-07
7.26497e-06
2.00267e-07
7.51056e-06
2.72132e-07
7.84482e-06
3.70546e-07
8.30016e-06
5.05244e-07
8.92065e-06
6.89845e-07
9.76626e-06
9.43806e-07
1.09187e-05
1.29595e-06
1.24893e-05
1.79158e-06
1.46282e-05
2.50819e-06
1.75297e-05
3.59409e-06
2.14004e-05
5.37257e-06
2.62311e-05
8.65299e-06
1.57554e-05
6.63891e-06
6.68161e-06
6.7323e-06
6.79592e-06
6.87868e-06
6.98866e-06
7.13657e-06
7.33684e-06
7.60897e-06
7.97952e-06
8.48476e-06
9.17461e-06
1.01184e-05
1.14144e-05
1.32059e-05
1.57141e-05
1.93082e-05
2.46808e-05
3.33338e-05
)
;

boundaryField
{
    x0
    {
        type            calculated;
        value           nonuniform List<scalar> 10(-6.6e-06 -6.6e-06 -6.6e-06 -6.6e-06 -6.6e-06 -6.6e-06 -6.6e-06 -6.6e-06 -6.6e-06 -6.6e-06);
    }
    x1
    {
        type            calculated;
        value           nonuniform List<scalar> 10(-2.27191e-05 -1.72722e-05 -1.12693e-05 -5.76813e-06 6.48246e-07 7.70128e-06 1.40341e-05 2.09355e-05 3.06204e-05 4.90892e-05);
    }
    y0
    {
        type            calculated;
        value           uniform 0;
    }
    y1
    {
        type            calculated;
        value           uniform 0;
    }
    z0
    {
        type            empty;
        value           nonuniform 0();
    }
    z1
    {
        type            empty;
        value           nonuniform 0();
    }
}


// ************************************************************************* //
