/*--------------------------------*- C++ -*----------------------------------*\
  =========                 |
  \\      /  F ield         | OpenFOAM: The Open Source CFD Toolbox
   \\    /   O peration     | Website:  https://openfoam.org
    \\  /    A nd           | Version:  7
     \\/     M anipulation  |
\*---------------------------------------------------------------------------*/
FoamFile
{
    version     2.0;
    format      ascii;
    class       volVectorField;
    location    "330000";
    object      Utheta;
}
// * * * * * * * * * * * * * * * * * * * * * * * * * * * * * * * * * * * * * //

dimensions      [0 1 -1 0 0 0 0];

internalField   nonuniform List<vector> 
200
(
(6.58053e-05 3.89401e-07 0)
(6.53968e-05 4.27572e-07 0)
(6.49292e-05 5.07673e-07 0)
(6.43566e-05 6.37599e-07 0)
(6.36227e-05 8.30183e-07 0)
(6.26553e-05 1.1045e-06 0)
(6.13591e-05 1.48787e-06 0)
(5.96058e-05 2.01873e-06 0)
(5.7221e-05 2.75098e-06 0)
(5.39653e-05 3.76045e-06 0)
(4.95076e-05 5.15498e-06 0)
(4.33843e-05 7.09155e-06 0)
(3.49347e-05 9.80769e-06 0)
(2.31876e-05 1.36865e-05 0)
(6.63958e-06 1.94094e-05 0)
(-1.72408e-05 2.83513e-05 0)
(-5.31055e-05 4.33781e-05 0)
(-0.000107948 6.63063e-05 0)
(-0.000177904 7.36055e-05 0)
(-0.000220949 1.24845e-05 0)
(6.58244e-05 5.65016e-07 0)
(6.54559e-05 6.20393e-07 0)
(6.50342e-05 7.36596e-07 0)
(6.45178e-05 9.2507e-07 0)
(6.38561e-05 1.20441e-06 0)
(6.29842e-05 1.60223e-06 0)
(6.18162e-05 2.15805e-06 0)
(6.02374e-05 2.92739e-06 0)
(5.80918e-05 3.98787e-06 0)
(5.51673e-05 5.44814e-06 0)
(5.11731e-05 7.46144e-06 0)
(4.57107e-05 1.02475e-05 0)
(3.82322e-05 1.41302e-05 0)
(2.79885e-05 1.96077e-05 0)
(1.39779e-05 2.74988e-05 0)
(-5.02462e-06 3.92645e-05 0)
(-3.01111e-05 5.75514e-05 0)
(-6.19669e-05 8.39887e-05 0)
(-0.000103746 9.77027e-05 0)
(-0.000150283 3.49237e-05 0)
(6.58607e-05 8.79955e-07 0)
(6.55684e-05 9.66174e-07 0)
(6.52339e-05 1.14709e-06 0)
(6.48244e-05 1.44048e-06 0)
(6.42998e-05 1.87523e-06 0)
(6.3609e-05 2.49422e-06 0)
(6.26843e-05 3.35864e-06 0)
(6.14357e-05 4.55427e-06 0)
(5.97417e-05 6.20048e-06 0)
(5.74388e-05 8.463e-06 0)
(5.4307e-05 1.15726e-05 0)
(5.0053e-05 1.58527e-05 0)
(4.42949e-05 2.17616e-05 0)
(3.65562e-05 2.99587e-05 0)
(2.63035e-05 4.14111e-05 0)
(1.31032e-05 5.7555e-05 0)
(-2.97584e-06 8.04265e-05 0)
(-2.13098e-05 0.000111303 0)
(-4.60287e-05 0.000136887 0)
(-8.69044e-05 8.31519e-05 0)
(6.59106e-05 1.10867e-06 0)
(6.57231e-05 1.21726e-06 0)
(6.55085e-05 1.44509e-06 0)
(6.5246e-05 1.81452e-06 0)
(6.49099e-05 2.36183e-06 0)
(6.44676e-05 3.14078e-06 0)
(6.38763e-05 4.22801e-06 0)
(6.30792e-05 5.73059e-06 0)
(6.20006e-05 7.79677e-06 0)
(6.05394e-05 1.06308e-05 0)
(5.85629e-05 1.45133e-05 0)
(5.58997e-05 1.98292e-05 0)
(5.23381e-05 2.71048e-05 0)
(4.76379e-05 3.70544e-05 0)
(4.15754e-05 5.06306e-05 0)
(3.40591e-05 6.9052e-05 0)
(2.53501e-05 9.37175e-05 0)
(1.61495e-05 0.000125547 0)
(4.37626e-06 0.000159135 0)
(-3.02334e-05 0.000136389 0)
(6.59693e-05 1.2288e-06 0)
(6.59048e-05 1.34911e-06 0)
(6.58311e-05 1.6015e-06 0)
(6.57411e-05 2.0107e-06 0)
(6.56261e-05 2.61677e-06 0)
(6.54751e-05 3.47908e-06 0)
(6.52741e-05 4.68203e-06 0)
(6.50044e-05 6.34331e-06 0)
(6.46419e-05 8.62522e-06 0)
(6.41554e-05 1.175e-05 0)
(6.35054e-05 1.60205e-05 0)
(6.26446e-05 2.1846e-05 0)
(6.15201e-05 2.97741e-05 0)
(6.0082e-05 4.05235e-05 0)
(5.83012e-05 5.50048e-05 0)
(5.61994e-05 7.4296e-05 0)
(5.38806e-05 9.95013e-05 0)
(5.14998e-05 0.000131345 0)
(4.81692e-05 0.000168441 0)
(2.62536e-05 0.000183608 0)
(6.60309e-05 1.22863e-06 0)
(6.60958e-05 1.34887e-06 0)
(6.61701e-05 1.6011e-06 0)
(6.62612e-05 2.00999e-06 0)
(6.63782e-05 2.61548e-06 0)
(6.65328e-05 3.47672e-06 0)
(6.67405e-05 4.67771e-06 0)
(6.70224e-05 6.3354e-06 0)
(6.74073e-05 8.61076e-06 0)
(6.79347e-05 1.17237e-05 0)
(6.86588e-05 1.59727e-05 0)
(6.96532e-05 2.17601e-05 0)
(7.10157e-05 2.9622e-05 0)
(7.28686e-05 4.02607e-05 0)
(7.53479e-05 5.45691e-05 0)
(7.85561e-05 7.36252e-05 0)
(8.24385e-05 9.86085e-05 0)
(8.65035e-05 0.000130553 0)
(8.92189e-05 0.000169848 0)
(8.34847e-05 0.000209851 0)
(6.60895e-05 1.10822e-06 0)
(6.62773e-05 1.21663e-06 0)
(6.64922e-05 1.44405e-06 0)
(6.67555e-05 1.81267e-06 0)
(6.70928e-05 2.35846e-06 0)
(6.75374e-05 3.13461e-06 0)
(6.81328e-05 4.21669e-06 0)
(6.89375e-05 5.70983e-06 0)
(7.00302e-05 7.75874e-06 0)
(7.15173e-05 1.05612e-05 0)
(7.35418e-05 1.43866e-05 0)
(7.62939e-05 1.95997e-05 0)
(8.00207e-05 2.66932e-05 0)
(8.50291e-05 3.63281e-05 0)
(9.16657e-05 4.93858e-05 0)
(0.000100239 6.70272e-05 0)
(0.000110813 9.07504e-05 0)
(0.000122763 0.000122396 0)
(0.000134048 0.000164005 0)
(0.000139747 0.000215729 0)
(6.61393e-05 8.79393e-07 0)
(6.64316e-05 9.65397e-07 0)
(6.67661e-05 1.1458e-06 0)
(6.71756e-05 1.43819e-06 0)
(6.77002e-05 1.87106e-06 0)
(6.83911e-05 2.48658e-06 0)
(6.93158e-05 3.34461e-06 0)
(7.05645e-05 4.52849e-06 0)
(7.22587e-05 6.1531e-06 0)
(7.45625e-05 8.37595e-06 0)
(7.76973e-05 1.14127e-05 0)
(8.19598e-05 1.5559e-05 0)
(8.77441e-05 2.12228e-05 0)
(9.55613e-05 2.89729e-05 0)
(0.000106047 3.96188e-05 0)
(0.000119921 5.43476e-05 0)
(0.000137809 7.49679e-05 0)
(0.000159712 0.000104324 0)
(0.000183636 0.000146868 0)
(0.000202511 0.000208291 0)
(6.61755e-05 5.64561e-07 0)
(6.65437e-05 6.19765e-07 0)
(6.6965e-05 7.35554e-07 0)
(6.74807e-05 9.23215e-07 0)
(6.81412e-05 1.20103e-06 0)
(6.90109e-05 1.59604e-06 0)
(7.01747e-05 2.14666e-06 0)
(7.1746e-05 2.90643e-06 0)
(7.38777e-05 3.94924e-06 0)
(7.67769e-05 5.37676e-06 0)
(8.07249e-05 7.32913e-06 0)
(8.6104e-05 1.00009e-05 0)
(9.34345e-05 1.36662e-05 0)
(0.000103425 1.87219e-05 0)
(0.00011704 2.57687e-05 0)
(0.000135588 3.57764e-05 0)
(0.00016079 5.04485e-05 0)
(0.000194651 7.30791e-05 0)
(0.000238158 0.000110683 0)
(0.000284258 0.000179501 0)
(6.61945e-05 3.89054e-07 0)
(6.66026e-05 4.27092e-07 0)
(6.70696e-05 5.06876e-07 0)
(6.76411e-05 6.36182e-07 0)
(6.8373e-05 8.27602e-07 0)
(6.93367e-05 1.09977e-06 0)
(7.06261e-05 1.47915e-06 0)
(7.23671e-05 2.00267e-06 0)
(7.47291e-05 2.72132e-06 0)
(7.79424e-05 3.70546e-06 0)
(8.23214e-05 5.05244e-06 0)
(8.82968e-05 6.89845e-06 0)
(9.64651e-05 9.43806e-06 0)
(0.000107664 1.29595e-05 0)
(0.000123102 1.79158e-05 0)
(0.0001446 2.50819e-05 0)
(0.000175112 3.59409e-05 0)
(0.000219945 5.37257e-05 0)
(0.000290073 8.65299e-05 0)
(0.000412115 0.000157554 0)
)
;

boundaryField
{
    x0
    {
        type            fixedValue;
        value           uniform (6.6e-05 0 0);
    }
    x1
    {
        type            zeroGradient;
    }
    y0
    {
        type            zeroGradient;
    }
    y1
    {
        type            zeroGradient;
    }
    z0
    {
        type            empty;
    }
    z1
    {
        type            empty;
    }
}


// ************************************************************************* //
