/*--------------------------------*- C++ -*----------------------------------*\
  =========                 |
  \\      /  F ield         | OpenFOAM: The Open Source CFD Toolbox
   \\    /   O peration     | Website:  https://openfoam.org
    \\  /    A nd           | Version:  7
     \\/     M anipulation  |
\*---------------------------------------------------------------------------*/
FoamFile
{
    version     2.0;
    format      ascii;
    class       volScalarField;
    location    "360000";
    object      C;
}
// * * * * * * * * * * * * * * * * * * * * * * * * * * * * * * * * * * * * * //

dimensions      [0 0 0 0 0 0 0];

internalField   nonuniform List<scalar> 
200
(
-2.11971e-39
3.6466e-37
-5.95404e-35
9.32833e-33
-1.40284e-30
2.02843e-28
-2.83058e-26
3.83788e-24
-5.11544e-22
6.83809e-20
-9.49693e-18
1.46579e-15
-2.92531e-13
1.28667e-10
5.03347e-08
4.28678e-06
0.000143988
0.00210114
0.0130729
0.0344793
-1.49884e-40
2.60097e-38
-4.28475e-36
6.77294e-34
-1.02732e-31
1.49704e-29
-2.10178e-27
2.85814e-25
-3.79945e-23
5.01499e-21
-6.75136e-19
9.73464e-17
-1.66234e-14
4.4303e-12
7.93171e-09
9.52361e-07
4.15496e-05
0.000808851
0.0072372
0.028054
4.2567e-41
-7.52016e-39
1.26034e-36
-2.02459e-34
3.11632e-32
-4.59887e-30
6.51914e-28
-8.91105e-26
1.18263e-23
-1.54177e-21
2.01381e-19
-2.72708e-17
4.07837e-15
-7.69497e-13
2.70371e-10
9.05897e-08
6.89383e-06
0.000218326
0.00326194
0.0211
9.08042e-43
-1.40434e-40
1.99862e-38
-2.61092e-36
3.04411e-34
-2.9656e-32
1.89414e-30
7.9677e-29
-5.88649e-26
1.44052e-23
-2.80107e-21
5.01464e-19
-8.97114e-17
1.75217e-14
-4.33509e-12
2.01562e-09
4.29919e-07
2.8217e-05
0.000908077
0.0140156
-4.47256e-42
7.89751e-40
-1.30996e-37
2.05775e-35
-3.05101e-33
4.25426e-31
-5.55703e-29
6.77265e-27
-7.6724e-25
8.05614e-23
-7.83631e-21
7.08913e-19
-6.0272e-17
4.88196e-15
-3.7211e-13
2.09057e-11
4.38635e-09
1.37017e-06
6.73963e-05
0.00323058
-6.69298e-41
1.25061e-38
-2.20388e-36
3.69244e-34
-5.86415e-32
8.79732e-30
-1.2416e-27
1.6406e-25
-2.01804e-23
2.29488e-21
-2.39253e-19
2.26335e-17
-1.91833e-15
1.43388e-13
-9.26889e-12
5.06009e-10
-2.27015e-08
8.2384e-07
-1.99023e-05
0.0006129
-9.37286e-41
1.82211e-38
-3.33962e-36
5.81324e-34
-9.5756e-32
1.48593e-29
-2.16027e-27
2.92221e-25
-3.64666e-23
4.15379e-21
-4.26223e-19
3.87639e-17
-3.0638e-15
2.05558e-13
-1.13921e-11
5.0571e-10
-1.73785e-08
4.44571e-07
-7.99167e-06
9.22424e-05
-4.13153e-41
8.31871e-39
-1.57865e-36
2.84246e-34
-4.83593e-32
7.73292e-30
-1.15443e-27
1.59544e-25
-2.0196e-23
2.31088e-21
-2.35145e-19
2.0861e-17
-1.5759e-15
9.86209e-14
-4.95495e-12
1.92936e-10
-5.59247e-09
1.14783e-07
-1.54129e-06
1.09785e-05
-7.5472e-42
1.56567e-39
-3.0614e-37
5.6771e-35
-9.93949e-33
1.63339e-30
-2.50063e-28
3.53271e-26
-4.55068e-24
5.26625e-22
-5.37635e-20
4.73738e-18
-3.51131e-16
2.12504e-14
-1.01515e-12
3.68276e-11
-9.69041e-10
1.74043e-08
-1.92905e-07
1.01068e-06
-6.06035e-43
1.28123e-40
-2.55359e-38
4.82656e-36
-8.61108e-34
1.44129e-31
-2.24544e-29
3.22369e-27
-4.21152e-25
4.92923e-23
-5.0711e-21
4.48246e-19
-3.31464e-17
1.98856e-15
-9.34645e-14
3.30553e-12
-8.37446e-11
1.41994e-09
-1.43137e-08
6.22723e-08
)
;

boundaryField
{
    x0
    {
        type            fixedValue;
        value           uniform 0;
    }
    x1
    {
        type            inletOutlet;
        inletValue      uniform 0.0357;
        value           nonuniform List<scalar> 10(0.0357 0.0357 0.0357 0.0357 0.00323058 0.0006129 9.22424e-05 1.09785e-05 1.01068e-06 6.22723e-08);
    }
    y0
    {
        type            zeroGradient;
    }
    y1
    {
        type            zeroGradient;
    }
    z0
    {
        type            empty;
    }
    z1
    {
        type            empty;
    }
}


// ************************************************************************* //
