/*--------------------------------*- C++ -*----------------------------------*\
  =========                 |
  \\      /  F ield         | OpenFOAM: The Open Source CFD Toolbox
   \\    /   O peration     | Website:  https://openfoam.org
    \\  /    A nd           | Version:  7
     \\/     M anipulation  |
\*---------------------------------------------------------------------------*/
FoamFile
{
    version     2.0;
    format      ascii;
    class       volScalarField;
    location    "360000";
    object      C_0;
}
// * * * * * * * * * * * * * * * * * * * * * * * * * * * * * * * * * * * * * //

dimensions      [0 0 0 0 0 0 0];

internalField   nonuniform List<scalar> 
200
(
-2.11271e-39
3.63516e-37
-5.93634e-35
9.30213e-33
-1.39913e-30
2.02341e-28
-2.82403e-26
3.82963e-24
-5.10528e-22
6.82563e-20
-9.48115e-18
1.46359e-15
-2.92137e-13
1.28509e-10
5.02837e-08
4.28324e-06
0.000143897
0.00210023
0.0130699
0.0344772
-1.49364e-40
2.59236e-38
-4.27126e-36
6.75274e-34
-1.02443e-31
1.49306e-29
-2.09654e-27
2.85148e-25
-3.79121e-23
5.00492e-21
-6.73887e-19
9.71815e-17
-1.65978e-14
4.42407e-12
7.92342e-09
9.51548e-07
4.15219e-05
0.000808464
0.00723515
0.0280515
4.24243e-41
-7.49616e-39
1.25652e-36
-2.01879e-34
3.10789e-32
-4.58718e-30
6.50362e-28
-8.89128e-26
1.18019e-23
-1.53885e-21
2.0103e-19
-2.72276e-17
4.07253e-15
-7.68507e-13
2.70058e-10
9.05065e-08
6.88885e-06
0.000218209
0.00326084
0.0210973
9.04922e-43
-1.39972e-40
1.99233e-38
-2.60302e-36
3.0352e-34
-2.957e-32
1.88806e-30
7.97212e-29
-5.87731e-26
1.43815e-23
-2.79661e-21
5.00712e-19
-8.95862e-17
1.74991e-14
-4.32995e-12
2.01342e-09
4.29555e-07
2.81992e-05
0.00090769
0.014013
-4.45667e-42
7.87077e-40
-1.30574e-37
2.05149e-35
-3.04226e-33
4.24282e-31
-5.54308e-29
6.75691e-27
-7.65603e-25
8.04055e-23
-7.82277e-21
7.0784e-19
-6.01938e-17
4.87665e-15
-3.71781e-13
2.08943e-11
4.38056e-09
1.36913e-06
6.73533e-05
0.00322957
-6.66865e-41
1.24627e-38
-2.19659e-36
3.68085e-34
-5.84672e-32
8.77263e-30
-1.23832e-27
1.63654e-25
-2.01338e-23
2.28998e-21
-2.38781e-19
2.25927e-17
-1.91519e-15
1.43177e-13
-9.25688e-12
5.0544e-10
-2.26799e-08
8.23198e-07
-1.98909e-05
0.000612616
-9.33732e-41
1.8155e-38
-3.32806e-36
5.79407e-34
-9.54561e-32
1.48152e-29
-2.15422e-27
2.91451e-25
-3.63766e-23
4.14423e-21
-4.25313e-19
3.86876e-17
-3.05828e-15
2.05223e-13
-1.13755e-11
5.05056e-10
-1.7359e-08
4.44148e-07
-7.98545e-06
9.21855e-05
-4.1152e-41
8.28718e-39
-1.57293e-36
2.83262e-34
-4.82e-32
7.70873e-30
-1.15101e-27
1.59098e-25
-2.01429e-23
2.30519e-21
-2.34605e-19
2.08166e-17
-1.5728e-15
9.84438e-14
-4.94689e-12
1.92655e-10
-5.58527e-09
1.14655e-07
-1.53983e-06
1.09701e-05
-7.51613e-42
1.55948e-39
-3.0498e-37
5.65653e-35
-9.90514e-33
1.62802e-30
-2.49282e-28
3.52226e-26
-4.53797e-24
5.25242e-22
-5.36312e-20
4.72652e-18
-3.50385e-16
2.12088e-14
-1.01334e-12
3.6768e-11
-9.67637e-10
1.7382e-08
-1.92692e-07
1.00974e-06
-6.03439e-43
1.27596e-40
-2.5435e-38
4.80827e-36
-8.57988e-34
1.43631e-31
-2.23805e-29
3.21362e-27
-4.19906e-25
4.91547e-23
-5.05779e-21
4.47145e-19
-3.30705e-17
1.98435e-15
-9.32822e-14
3.29965e-12
-8.36099e-11
1.4179e-09
-1.42956e-08
6.22058e-08
)
;

boundaryField
{
    x0
    {
        type            fixedValue;
        value           uniform 0;
    }
    x1
    {
        type            inletOutlet;
        inletValue      uniform 0.0357;
        value           nonuniform List<scalar> 10(0.0357 0.0357 0.0357 0.0357 0.00322957 0.000612616 9.21855e-05 1.09701e-05 1.00974e-06 6.22058e-08);
    }
    y0
    {
        type            zeroGradient;
    }
    y1
    {
        type            zeroGradient;
    }
    z0
    {
        type            empty;
    }
    z1
    {
        type            empty;
    }
}


// ************************************************************************* //
