/*--------------------------------*- C++ -*----------------------------------*\
  =========                 |
  \\      /  F ield         | OpenFOAM: The Open Source CFD Toolbox
   \\    /   O peration     | Website:  https://openfoam.org
    \\  /    A nd           | Version:  7
     \\/     M anipulation  |
\*---------------------------------------------------------------------------*/
FoamFile
{
    version     2.0;
    format      ascii;
    class       surfaceScalarField;
    location    "360000";
    object      phi;
}
// * * * * * * * * * * * * * * * * * * * * * * * * * * * * * * * * * * * * * //

dimensions      [0 3 -1 0 0 0 0];

internalField   nonuniform List<scalar> 
370
(
6.56099e-06
3.90131e-08
6.51815e-06
4.28379e-08
6.46728e-06
5.08645e-08
6.4034e-06
6.38846e-08
6.32021e-06
8.31853e-08
6.20953e-06
1.10681e-07
6.06042e-06
1.49112e-07
5.85808e-06
2.02344e-07
5.58228e-06
2.75796e-07
5.20518e-06
3.77107e-07
4.688e-06
5.17172e-07
3.97609e-06
7.11913e-07
2.99052e-06
9.85569e-07
1.61292e-06
1.3776e-06
-3.4619e-07
1.95911e-06
-3.22168e-06
2.87549e-06
-7.64425e-06
4.42257e-06
-1.43274e-05
6.68311e-06
-2.12926e-05
6.96527e-06
6.62878e-07
6.56481e-06
7.42013e-08
6.52618e-06
8.14741e-08
6.4803e-06
9.67355e-08
6.4227e-06
1.21489e-07
6.34771e-06
1.58176e-07
6.24797e-06
2.10425e-07
6.11365e-06
2.83425e-07
5.93153e-06
3.84466e-07
5.68359e-06
5.23733e-07
5.34524e-06
7.15458e-07
4.88274e-06
9.79669e-07
4.24975e-06
1.34491e-06
3.38255e-06
1.85276e-06
2.19445e-06
2.56571e-06
5.71999e-07
3.58156e-06
-1.61152e-06
5.05901e-06
-4.43057e-06
7.24162e-06
-7.95648e-06
1.0209e-05
-1.28167e-05
1.18255e-05
4.91748e-06
6.57208e-06
1.02117e-07
6.54144e-06
1.12122e-07
6.50506e-06
1.33115e-07
6.45939e-06
1.67159e-07
6.39996e-06
2.17604e-07
6.32097e-06
2.8942e-07
6.21469e-06
3.89696e-07
6.0708e-06
5.28364e-07
5.87532e-06
7.1921e-07
5.60945e-06
9.81325e-07
5.24799e-06
1.34113e-06
4.75759e-06
1.8353e-06
4.0955e-06
2.51486e-06
3.2103e-06
3.45091e-06
2.04981e-06
4.74204e-06
5.87668e-07
6.52115e-06
-1.12077e-06
8.95006e-06
-3.02572e-06
1.2114e-05
-6.19625e-06
1.4996e-05
1.00516e-05
6.58209e-06
1.20027e-07
6.56243e-06
1.31781e-07
6.5391e-06
1.56442e-07
6.50983e-06
1.96428e-07
6.47178e-06
2.55661e-07
6.42124e-06
3.39953e-07
6.35336e-06
4.57577e-07
6.26164e-06
6.20082e-07
6.13743e-06
8.4342e-07
5.96926e-06
1.1495e-06
5.74216e-06
1.56824e-06
5.43715e-06
2.14031e-06
5.03155e-06
2.92045e-06
4.50143e-06
3.98103e-06
3.82896e-06
5.41452e-06
3.01911e-06
7.331e-06
2.12681e-06
9.84236e-06
1.22911e-06
1.30117e-05
-3.11014e-07
1.65362e-05
1.57715e-05
6.59384e-06
1.26183e-07
6.58709e-06
1.38534e-07
6.57909e-06
1.64445e-07
6.56907e-06
2.06451e-07
6.55607e-06
2.6866e-07
6.53887e-06
3.57154e-07
6.51587e-06
4.80577e-07
6.48498e-06
6.50966e-07
6.44351e-06
8.84893e-07
6.38801e-06
1.205e-06
6.31423e-06
1.64201e-06
6.21728e-06
2.23726e-06
6.09213e-06
3.04561e-06
5.93492e-06
4.13824e-06
5.74544e-06
5.60399e-06
5.53061e-06
7.54584e-06
5.30631e-06
1.00667e-05
5.08453e-06
1.32334e-05
4.61793e-06
1.70028e-05
2.00529e-05
6.6062e-06
1.19988e-07
6.613e-06
1.31728e-07
6.62109e-06
1.56353e-07
6.63127e-06
1.9627e-07
6.64456e-06
2.55373e-07
6.66229e-06
3.39426e-07
6.68626e-06
4.56611e-07
6.71891e-06
6.18312e-07
6.76362e-06
8.40185e-07
6.82502e-06
1.1436e-06
6.90948e-06
1.55755e-06
7.02563e-06
2.12111e-06
7.18477e-06
2.88647e-06
7.40066e-06
3.92235e-06
7.68729e-06
5.31736e-06
8.05142e-06
7.18171e-06
8.47387e-06
9.6442e-06
8.8697e-06
1.28376e-05
8.99623e-06
1.68762e-05
2.15279e-05
6.61793e-06
1.02054e-07
6.63763e-06
1.12035e-07
6.66101e-06
1.32971e-07
6.69038e-06
1.66903e-07
6.72861e-06
2.17138e-07
6.77947e-06
2.88565e-07
6.84796e-06
3.88129e-07
6.94078e-06
5.25487e-07
7.06703e-06
7.13935e-07
7.23897e-06
9.71662e-07
7.47304e-06
1.32348e-06
7.79098e-06
1.80317e-06
8.22065e-06
2.4568e-06
8.79568e-06
3.34732e-06
9.55165e-06
4.56139e-06
1.05139e-05
6.21948e-06
1.16677e-05
8.49034e-06
1.28981e-05
1.16072e-05
1.39044e-05
1.587e-05
2.14802e-05
6.62792e-06
7.41384e-08
6.65856e-06
8.13872e-08
6.69494e-06
9.65913e-08
6.74061e-06
1.21232e-07
6.80004e-06
1.57709e-07
6.87904e-06
2.09569e-07
6.98531e-06
2.81852e-07
7.12923e-06
3.81572e-07
7.32476e-06
5.18405e-07
7.59079e-06
7.05636e-07
7.95274e-06
9.61527e-07
8.44461e-06
1.3113e-06
9.11117e-06
1.79024e-06
1.00097e-05
2.44873e-06
1.12097e-05
3.3614e-06
1.27847e-05
4.64446e-06
1.47848e-05
6.49025e-06
1.71574e-05
9.23472e-06
1.9554e-05
1.34734e-05
2.01346e-05
6.63516e-06
3.89742e-08
6.67377e-06
4.27842e-08
6.71958e-06
5.07754e-08
6.77709e-06
6.3726e-08
6.8519e-06
8.28964e-08
6.95132e-06
1.10151e-07
7.08503e-06
1.48137e-07
7.26606e-06
2.00546e-07
7.51199e-06
2.72475e-07
7.84668e-06
3.7095e-07
8.30251e-06
5.05689e-07
8.92354e-06
6.90279e-07
9.76966e-06
9.44122e-07
1.09224e-05
1.29597e-06
1.24928e-05
1.79102e-06
1.46305e-05
2.50673e-06
1.75294e-05
3.59142e-06
2.13954e-05
5.3687e-06
2.622e-05
8.64877e-06
1.57524e-05
6.63897e-06
6.68176e-06
6.73253e-06
6.79626e-06
6.87916e-06
6.98931e-06
7.13744e-06
7.33799e-06
7.61047e-06
7.98142e-06
8.4871e-06
9.17738e-06
1.01215e-05
1.14175e-05
1.32085e-05
1.57152e-05
1.93066e-05
2.46754e-05
3.33241e-05
)
;

boundaryField
{
    x0
    {
        type            calculated;
        value           nonuniform List<scalar> 10(-6.6e-06 -6.6e-06 -6.6e-06 -6.6e-06 -6.6e-06 -6.6e-06 -6.6e-06 -6.6e-06 -6.6e-06 -6.6e-06);
    }
    x1
    {
        type            calculated;
        value           nonuniform List<scalar> 10(-2.19555e-05 -1.70713e-05 -1.13304e-05 -6.03085e-06 3.36486e-07 7.52122e-06 1.39521e-05 2.08996e-05 3.06021e-05 4.90766e-05);
    }
    y0
    {
        type            calculated;
        value           uniform 0;
    }
    y1
    {
        type            calculated;
        value           uniform 0;
    }
    z0
    {
        type            empty;
        value           nonuniform 0();
    }
    z1
    {
        type            empty;
        value           nonuniform 0();
    }
}


// ************************************************************************* //
