/*--------------------------------*- C++ -*----------------------------------*\
  =========                 |
  \\      /  F ield         | OpenFOAM: The Open Source CFD Toolbox
   \\    /   O peration     | Website:  https://openfoam.org
    \\  /    A nd           | Version:  7
     \\/     M anipulation  |
\*---------------------------------------------------------------------------*/
FoamFile
{
    version     2.0;
    format      ascii;
    class       volVectorField;
    location    "360000";
    object      Utheta;
}
// * * * * * * * * * * * * * * * * * * * * * * * * * * * * * * * * * * * * * //

dimensions      [0 1 -1 0 0 0 0];

internalField   nonuniform List<vector> 
200
(
(6.58049e-05 3.90131e-07 0)
(6.53957e-05 4.28379e-07 0)
(6.49272e-05 5.08645e-07 0)
(6.43534e-05 6.38846e-07 0)
(6.36181e-05 8.31853e-07 0)
(6.26487e-05 1.10681e-06 0)
(6.13498e-05 1.49112e-06 0)
(5.95925e-05 2.02344e-06 0)
(5.72018e-05 2.75796e-06 0)
(5.39373e-05 3.77107e-06 0)
(4.94659e-05 5.17172e-06 0)
(4.33205e-05 7.11913e-06 0)
(3.48331e-05 9.85569e-06 0)
(2.30172e-05 1.3776e-05 0)
(6.33365e-06 1.95911e-05 0)
(-1.78393e-05 2.87549e-05 0)
(-5.43296e-05 4.42257e-05 0)
(-0.000109858 6.68311e-05 0)
(-0.0001781 6.96527e-05 0)
(-0.000216241 6.62878e-06 0)
(6.58241e-05 5.66072e-07 0)
(6.54549e-05 6.2156e-07 0)
(6.50324e-05 7.38e-07 0)
(6.4515e-05 9.26867e-07 0)
(6.38521e-05 1.20681e-06 0)
(6.29784e-05 1.60553e-06 0)
(6.18081e-05 2.16269e-06 0)
(6.02259e-05 2.93405e-06 0)
(5.80756e-05 3.99764e-06 0)
(5.51442e-05 5.46283e-06 0)
(5.11399e-05 7.48421e-06 0)
(4.56624e-05 1.02841e-05 0)
(3.81615e-05 1.41917e-05 0)
(2.7885e-05 1.97165e-05 0)
(1.38322e-05 2.77033e-05 0)
(-5.19762e-06 3.96725e-05 0)
(-3.02104e-05 5.8321e-05 0)
(-6.19352e-05 8.44607e-05 0)
(-0.000103866 9.39539e-05 0)
(-0.00014944 2.79018e-05 0)
(6.58604e-05 8.8159e-07 0)
(6.55676e-05 9.67979e-07 0)
(6.52325e-05 1.14925e-06 0)
(6.48222e-05 1.44324e-06 0)
(6.42967e-05 1.8789e-06 0)
(6.36046e-05 2.49922e-06 0)
(6.26783e-05 3.36561e-06 0)
(6.14275e-05 4.56415e-06 0)
(5.97306e-05 6.21472e-06 0)
(5.74239e-05 8.48392e-06 0)
(5.42872e-05 1.1604e-05 0)
(5.00279e-05 1.59011e-05 0)
(4.42655e-05 2.18381e-05 0)
(3.6529e-05 3.00831e-05 0)
(2.63006e-05 4.1618e-05 0)
(1.31874e-05 5.79008e-05 0)
(-2.66553e-06 8.09584e-05 0)
(-2.07325e-05 0.000111615 0)
(-4.61098e-05 0.000134108 0)
(-8.76333e-05 7.48456e-05 0)
(6.59104e-05 1.11072e-06 0)
(6.57226e-05 1.21952e-06 0)
(6.55077e-05 1.44779e-06 0)
(6.52447e-05 1.81794e-06 0)
(6.4908e-05 2.36633e-06 0)
(6.44651e-05 3.14686e-06 0)
(6.3873e-05 4.23637e-06 0)
(6.3075e-05 5.74223e-06 0)
(6.19954e-05 7.81315e-06 0)
(6.05335e-05 1.06541e-05 0)
(5.85571e-05 1.45469e-05 0)
(5.58965e-05 1.98781e-05 0)
(5.23435e-05 2.71765e-05 0)
(4.76649e-05 3.71597e-05 0)
(4.16519e-05 5.07828e-05 0)
(3.42403e-05 6.92608e-05 0)
(2.57296e-05 9.39621e-05 0)
(1.67796e-05 0.000125628 0)
(4.59048e-06 0.000157661 0)
(-3.17093e-05 0.000129115 0)
(6.59692e-05 1.23105e-06 0)
(6.59047e-05 1.35158e-06 0)
(6.58309e-05 1.60444e-06 0)
(6.57408e-05 2.0144e-06 0)
(6.56257e-05 2.62161e-06 0)
(6.54747e-05 3.48553e-06 0)
(6.52737e-05 4.69077e-06 0)
(6.50042e-05 6.35524e-06 0)
(6.46425e-05 8.64157e-06 0)
(6.41576e-05 1.17725e-05 0)
(6.35112e-05 1.60513e-05 0)
(6.26576e-05 2.18879e-05 0)
(6.15471e-05 2.98303e-05 0)
(6.01352e-05 4.05964e-05 0)
(5.84018e-05 5.50925e-05 0)
(5.63803e-05 7.43842e-05 0)
(5.41846e-05 9.95451e-05 0)
(5.19542e-05 0.000131226 0)
(4.85123e-05 0.000167695 0)
(2.47721e-05 0.000179122 0)
(6.6031e-05 1.23086e-06 0)
(6.6096e-05 1.35131e-06 0)
(6.61705e-05 1.60399e-06 0)
(6.62618e-05 2.0136e-06 0)
(6.63792e-05 2.62017e-06 0)
(6.65342e-05 3.4829e-06 0)
(6.67427e-05 4.68594e-06 0)
(6.70258e-05 6.34639e-06 0)
(6.74126e-05 8.62539e-06 0)
(6.79432e-05 1.1743e-05 0)
(6.86725e-05 1.59978e-05 0)
(6.96755e-05 2.17919e-05 0)
(7.1052e-05 2.96604e-05 0)
(7.29272e-05 4.03029e-05 0)
(7.54398e-05 5.46067e-05 0)
(7.86936e-05 7.36378e-05 0)
(8.26265e-05 9.85543e-05 0)
(8.67179e-05 0.000130355 0)
(8.93297e-05 0.000169395 0)
(8.25872e-05 0.000207904 0)
(6.60897e-05 1.11021e-06 0)
(6.62778e-05 1.21881e-06 0)
(6.64932e-05 1.44662e-06 0)
(6.67569e-05 1.81586e-06 0)
(6.7095e-05 2.36255e-06 0)
(6.75404e-05 3.13996e-06 0)
(6.81372e-05 4.2237e-06 0)
(6.89437e-05 5.719e-06 0)
(7.00391e-05 7.7706e-06 0)
(7.153e-05 1.05763e-05 0)
(7.35601e-05 1.44051e-05 0)
(7.63201e-05 1.96214e-05 0)
(8.00581e-05 2.67163e-05 0)
(8.50816e-05 3.63483e-05 0)
(9.17366e-05 4.93937e-05 0)
(0.000100328 6.70059e-05 0)
(0.000110908 9.06727e-05 0)
(0.000122829 0.000122224 0)
(0.000134012 0.000163731 0)
(0.000139282 0.000215041 0)
(6.61396e-05 8.80961e-07 0)
(6.64324e-05 9.6711e-07 0)
(6.67675e-05 1.14781e-06 0)
(6.71778e-05 1.44067e-06 0)
(6.77033e-05 1.87423e-06 0)
(6.83954e-05 2.49067e-06 0)
(6.93218e-05 3.3499e-06 0)
(7.05727e-05 4.5353e-06 0)
(7.22699e-05 6.1617e-06 0)
(7.45777e-05 8.38649e-06 0)
(7.77176e-05 1.1425e-05 0)
(8.19867e-05 1.55724e-05 0)
(8.77789e-05 2.12352e-05 0)
(9.56046e-05 2.89802e-05 0)
(0.000106097 3.9614e-05 0)
(0.000119972 5.43197e-05 0)
(0.000137848 7.4903e-05 0)
(0.000159711 0.00010421 0)
(0.000183557 0.000146717 0)
(0.000202268 0.000208074 0)
(6.61758e-05 5.65563e-07 0)
(6.65447e-05 6.20857e-07 0)
(6.69668e-05 7.36833e-07 0)
(6.74834e-05 9.24791e-07 0)
(6.8145e-05 1.20303e-06 0)
(6.90161e-05 1.5986e-06 0)
(7.01818e-05 2.14995e-06 0)
(7.17555e-05 2.91059e-06 0)
(7.38903e-05 3.9544e-06 0)
(7.67933e-05 5.38293e-06 0)
(8.0746e-05 7.33608e-06 0)
(8.61303e-05 1.00079e-05 0)
(9.3466e-05 1.36718e-05 0)
(0.00010346 1.87235e-05 0)
(0.000117076 2.57621e-05 0)
(0.000135617 3.57559e-05 0)
(0.000160799 5.04084e-05 0)
(0.000194624 7.30171e-05 0)
(0.000238077 0.000110611 0)
(0.000284111 0.000179435 0)
(6.61949e-05 3.89742e-07 0)
(6.66037e-05 4.27842e-07 0)
(6.70715e-05 5.07754e-07 0)
(6.7644e-05 6.3726e-07 0)
(6.83771e-05 8.28964e-07 0)
(6.93423e-05 1.10151e-06 0)
(7.06338e-05 1.48137e-06 0)
(7.23772e-05 2.00546e-06 0)
(7.47423e-05 2.72475e-06 0)
(7.79594e-05 3.7095e-06 0)
(8.23426e-05 5.05689e-06 0)
(8.83224e-05 6.90279e-06 0)
(9.64944e-05 9.44122e-06 0)
(0.000107695 1.29597e-05 0)
(0.00012313 1.79102e-05 0)
(0.000144619 2.50673e-05 0)
(0.000175109 3.59142e-05 0)
(0.00021991 5.3687e-05 0)
(0.000289997 8.64877e-05 0)
(0.000412003 0.000157524 0)
)
;

boundaryField
{
    x0
    {
        type            fixedValue;
        value           uniform (6.6e-05 0 0);
    }
    x1
    {
        type            zeroGradient;
    }
    y0
    {
        type            zeroGradient;
    }
    y1
    {
        type            zeroGradient;
    }
    z0
    {
        type            empty;
    }
    z1
    {
        type            empty;
    }
}


// ************************************************************************* //
