/*--------------------------------*- C++ -*----------------------------------*\
  =========                 |
  \\      /  F ield         | OpenFOAM: The Open Source CFD Toolbox
   \\    /   O peration     | Website:  https://openfoam.org
    \\  /    A nd           | Version:  7
     \\/     M anipulation  |
\*---------------------------------------------------------------------------*/
FoamFile
{
    version     2.0;
    format      ascii;
    class       volScalarField;
    location    "500";
    object      C;
}
// * * * * * * * * * * * * * * * * * * * * * * * * * * * * * * * * * * * * * //

dimensions      [0 0 0 0 0 0 0];

internalField   nonuniform List<scalar> 
200
(
0.0382422
0.000370465
2.38924e-06
1.15516e-08
4.46748e-11
1.43983e-13
3.97785e-16
9.61717e-19
2.06708e-21
3.99926e-24
7.03532e-27
1.13469e-29
1.6896e-32
2.33663e-35
3.01656e-38
3.65165e-41
4.16121e-44
4.4793e-47
4.56882e-50
4.42394e-53
0.0382422
0.000370465
2.38924e-06
1.15516e-08
4.46748e-11
1.43983e-13
3.97785e-16
9.61717e-19
2.06708e-21
3.99926e-24
7.03532e-27
1.13469e-29
1.6896e-32
2.33663e-35
3.01656e-38
3.65165e-41
4.16121e-44
4.4793e-47
4.56882e-50
4.42394e-53
0.0382422
0.000370465
2.38924e-06
1.15516e-08
4.46748e-11
1.43983e-13
3.97785e-16
9.61717e-19
2.06708e-21
3.99926e-24
7.03532e-27
1.13469e-29
1.6896e-32
2.33663e-35
3.01656e-38
3.65165e-41
4.16121e-44
4.4793e-47
4.56882e-50
4.42394e-53
0.0382422
0.000370465
2.38924e-06
1.15516e-08
4.46748e-11
1.43983e-13
3.97785e-16
9.61717e-19
2.06708e-21
3.99926e-24
7.03532e-27
1.13469e-29
1.6896e-32
2.33663e-35
3.01656e-38
3.65165e-41
4.16121e-44
4.4793e-47
4.56882e-50
4.42394e-53
0.0382422
0.000370465
2.38924e-06
1.15516e-08
4.46748e-11
1.43983e-13
3.97785e-16
9.61717e-19
2.06708e-21
3.99926e-24
7.03532e-27
1.13469e-29
1.6896e-32
2.33663e-35
3.01656e-38
3.65165e-41
4.16121e-44
4.4793e-47
4.56882e-50
4.42394e-53
0.0382422
0.000370465
2.38924e-06
1.15516e-08
4.46748e-11
1.43983e-13
3.97785e-16
9.61717e-19
2.06708e-21
3.99926e-24
7.03532e-27
1.13469e-29
1.6896e-32
2.33663e-35
3.01656e-38
3.65165e-41
4.16121e-44
4.4793e-47
4.56882e-50
4.42394e-53
0.0382422
0.000370465
2.38924e-06
1.15516e-08
4.46748e-11
1.43983e-13
3.97785e-16
9.61717e-19
2.06708e-21
3.99926e-24
7.03532e-27
1.13469e-29
1.6896e-32
2.33663e-35
3.01656e-38
3.65165e-41
4.16121e-44
4.4793e-47
4.56882e-50
4.42394e-53
0.0382422
0.000370465
2.38924e-06
1.15516e-08
4.46748e-11
1.43983e-13
3.97785e-16
9.61717e-19
2.06708e-21
3.99926e-24
7.03532e-27
1.13469e-29
1.6896e-32
2.33663e-35
3.01656e-38
3.65165e-41
4.16121e-44
4.4793e-47
4.56882e-50
4.42394e-53
0.0382422
0.000370465
2.38924e-06
1.15516e-08
4.46748e-11
1.43983e-13
3.97785e-16
9.61717e-19
2.06708e-21
3.99926e-24
7.03532e-27
1.13469e-29
1.6896e-32
2.33663e-35
3.01656e-38
3.65165e-41
4.16121e-44
4.4793e-47
4.56882e-50
4.42394e-53
0.0382422
0.000370465
2.38924e-06
1.15516e-08
4.46748e-11
1.43983e-13
3.97785e-16
9.61717e-19
2.06708e-21
3.99926e-24
7.03532e-27
1.13469e-29
1.6896e-32
2.33663e-35
3.01656e-38
3.65165e-41
4.16121e-44
4.4793e-47
4.56882e-50
4.42394e-53
)
;

boundaryField
{
    x0
    {
        type            fixedValue;
        value           uniform 1;
    }
    x1
    {
        type            zeroGradient;
    }
    y0
    {
        type            zeroGradient;
    }
    y1
    {
        type            zeroGradient;
    }
    z0
    {
        type            empty;
    }
    z1
    {
        type            empty;
    }
}


// ************************************************************************* //
