/*--------------------------------*- C++ -*----------------------------------*\
  =========                 |
  \\      /  F ield         | OpenFOAM: The Open Source CFD Toolbox
   \\    /   O peration     | Website:  https://openfoam.org
    \\  /    A nd           | Version:  7
     \\/     M anipulation  |
\*---------------------------------------------------------------------------*/
FoamFile
{
    version     2.0;
    format      ascii;
    class       volScalarField;
    location    "500";
    object      C_0;
}
// * * * * * * * * * * * * * * * * * * * * * * * * * * * * * * * * * * * * * //

dimensions      [0 0 0 0 0 0 0];

internalField   nonuniform List<scalar> 
200
(
0.0382347
0.000370318
2.3878e-06
1.15424e-08
4.46302e-11
1.4381e-13
3.97229e-16
9.60181e-19
2.06337e-21
3.99128e-24
7.01987e-27
1.13197e-29
1.68522e-32
2.3301e-35
3.00754e-38
3.64e-41
4.14711e-44
4.46324e-47
4.55153e-50
4.40632e-53
0.0382347
0.000370318
2.3878e-06
1.15424e-08
4.46302e-11
1.4381e-13
3.97229e-16
9.60181e-19
2.06337e-21
3.99128e-24
7.01987e-27
1.13197e-29
1.68522e-32
2.3301e-35
3.00754e-38
3.64e-41
4.14711e-44
4.46324e-47
4.55153e-50
4.40632e-53
0.0382347
0.000370318
2.3878e-06
1.15424e-08
4.46302e-11
1.4381e-13
3.97229e-16
9.60181e-19
2.06337e-21
3.99128e-24
7.01987e-27
1.13197e-29
1.68522e-32
2.3301e-35
3.00754e-38
3.64e-41
4.14711e-44
4.46324e-47
4.55153e-50
4.40632e-53
0.0382347
0.000370318
2.3878e-06
1.15424e-08
4.46302e-11
1.4381e-13
3.97229e-16
9.60181e-19
2.06337e-21
3.99128e-24
7.01987e-27
1.13197e-29
1.68522e-32
2.3301e-35
3.00754e-38
3.64e-41
4.14711e-44
4.46324e-47
4.55153e-50
4.40632e-53
0.0382347
0.000370318
2.3878e-06
1.15424e-08
4.46302e-11
1.4381e-13
3.97229e-16
9.60181e-19
2.06337e-21
3.99128e-24
7.01987e-27
1.13197e-29
1.68522e-32
2.3301e-35
3.00754e-38
3.64e-41
4.14711e-44
4.46324e-47
4.55153e-50
4.40632e-53
0.0382347
0.000370318
2.3878e-06
1.15424e-08
4.46302e-11
1.4381e-13
3.97229e-16
9.60181e-19
2.06337e-21
3.99128e-24
7.01987e-27
1.13197e-29
1.68522e-32
2.3301e-35
3.00754e-38
3.64e-41
4.14711e-44
4.46324e-47
4.55153e-50
4.40632e-53
0.0382347
0.000370318
2.3878e-06
1.15424e-08
4.46302e-11
1.4381e-13
3.97229e-16
9.60181e-19
2.06337e-21
3.99128e-24
7.01987e-27
1.13197e-29
1.68522e-32
2.3301e-35
3.00754e-38
3.64e-41
4.14711e-44
4.46324e-47
4.55153e-50
4.40632e-53
0.0382347
0.000370318
2.3878e-06
1.15424e-08
4.46302e-11
1.4381e-13
3.97229e-16
9.60181e-19
2.06337e-21
3.99128e-24
7.01987e-27
1.13197e-29
1.68522e-32
2.3301e-35
3.00754e-38
3.64e-41
4.14711e-44
4.46324e-47
4.55153e-50
4.40632e-53
0.0382347
0.000370318
2.3878e-06
1.15424e-08
4.46302e-11
1.4381e-13
3.97229e-16
9.60181e-19
2.06337e-21
3.99128e-24
7.01987e-27
1.13197e-29
1.68522e-32
2.3301e-35
3.00754e-38
3.64e-41
4.14711e-44
4.46324e-47
4.55153e-50
4.40632e-53
0.0382347
0.000370318
2.3878e-06
1.15424e-08
4.46302e-11
1.4381e-13
3.97229e-16
9.60181e-19
2.06337e-21
3.99128e-24
7.01987e-27
1.13197e-29
1.68522e-32
2.3301e-35
3.00754e-38
3.64e-41
4.14711e-44
4.46324e-47
4.55153e-50
4.40632e-53
)
;

boundaryField
{
    x0
    {
        type            fixedValue;
        value           uniform 1;
    }
    x1
    {
        type            zeroGradient;
    }
    y0
    {
        type            zeroGradient;
    }
    y1
    {
        type            zeroGradient;
    }
    z0
    {
        type            empty;
    }
    z1
    {
        type            empty;
    }
}


// ************************************************************************* //
