/*--------------------------------*- C++ -*----------------------------------*\
  =========                 |
  \\      /  F ield         | OpenFOAM: The Open Source CFD Toolbox
   \\    /   O peration     | Website:  https://openfoam.org
    \\  /    A nd           | Version:  7
     \\/     M anipulation  |
\*---------------------------------------------------------------------------*/
FoamFile
{
    version     2.0;
    format      ascii;
    class       surfaceScalarField;
    location    "500";
    object      phi;
}
// * * * * * * * * * * * * * * * * * * * * * * * * * * * * * * * * * * * * * //

dimensions      [0 3 -1 0 0 0 0];

internalField   nonuniform List<scalar> 
370
(
0.000500001
4.4409e-18
0.000500001
1.27024e-16
0.000500001
3.75256e-16
0.000500001
3.4417e-16
0.000500001
1.15463e-16
0.000500001
1.65424e-16
0.000500001
-2.88659e-17
0.000500001
-4.25355e-17
0.000500001
5.99522e-17
0.000500001
1.25455e-16
0.000500001
1.39333e-16
0.000500001
1.06582e-16
0.000500001
1.69864e-16
0.000500001
1.23055e-16
0.000500001
-7.60504e-17
0.000500001
-1.56819e-16
0.000500001
-7.64251e-17
0.000500001
3.1919e-18
0.000500001
6.53645e-17
7.67443e-17
0.000500001
-2.22739e-17
0.000500001
1.09912e-16
0.000500001
-5.82868e-18
0.000500001
2.74503e-16
0.000500001
4.5547e-16
0.000500001
4.31322e-16
0.000500001
4.05787e-16
0.000500001
2.98651e-16
0.000500001
1.59317e-16
0.000500001
2.27596e-17
0.000500001
2.88659e-17
0.000500001
-7.77158e-18
0.000500001
-3.10863e-17
0.000500001
1.58762e-16
0.000500001
2.40919e-16
0.000500001
6.55033e-17
0.000500001
-6.55033e-17
0.000500001
1.11023e-18
0.000500001
8.81241e-17
5.54766e-17
0.000500001
-1.58693e-16
0.000500001
4.61854e-16
0.000500001
1.86934e-16
0.000500001
3.30014e-16
0.000500001
4.49641e-16
0.000500001
2.53131e-16
0.000500001
2.42584e-16
0.000500001
7.60504e-17
0.000500001
7.49402e-17
0.000500001
4.4409e-18
0.000500001
7.21646e-18
0.000500001
1.33782e-16
0.000500001
1.39333e-16
0.000500001
9.93651e-17
0.000500001
8.82629e-17
0.000500001
6.32828e-17
0.000500001
6.1895e-17
0.000500001
7.96586e-17
0.000500001
4.01069e-17
-5.58582e-18
0.000500001
2.40919e-16
0.000500001
1.12133e-16
0.000500001
5.05014e-16
0.000500001
3.12806e-16
0.000500001
2.11775e-16
0.000500001
-1.38778e-17
0.000500001
1.70975e-16
0.000500001
2.4536e-16
0.000500001
1.06582e-16
0.000500001
-1.4877e-16
0.000500001
-2.27596e-17
0.000500001
1.7375e-16
0.000500001
-2.38698e-17
0.000500001
-2.82552e-16
0.000500001
-2.13163e-16
0.000500001
-1.77636e-17
0.000500001
3.4417e-17
0.000500001
-1.56819e-17
0.000500001
-5.38459e-17
-2.97332e-17
0.000500001
-4.00826e-16
0.000500001
-2.62013e-16
0.000500001
-1.51268e-16
0.000500001
-4.74344e-16
0.000500001
-3.41117e-16
0.000500001
6.71686e-17
0.000500001
5.9397e-17
0.000500001
-7.82709e-17
0.000500001
1.33227e-17
0.000500001
1.89848e-16
0.000500001
2.72005e-16
0.000500001
1.69864e-16
0.000500001
-6.66135e-17
0.000500001
-1.9651e-16
0.000500001
-1.26566e-16
0.000500001
-5.35684e-17
0.000500001
-1.09357e-16
0.000500001
-1.48076e-16
0.000500001
-7.21646e-17
7.18177e-18
0.000500001
4.4631e-16
0.000500001
-6.98054e-17
0.000500001
-4.31461e-16
0.000500001
-1.27953e-16
0.000500001
-6.8834e-17
0.000500001
-2.68119e-16
0.000500001
-4.39094e-16
0.000500001
-2.54242e-16
0.000500001
-7.77158e-18
0.000500001
-4.27437e-17
0.000500001
-2.54242e-16
0.000500001
-2.80887e-16
0.000500001
-6.21726e-17
0.000500001
1.04361e-16
0.000500001
5.71766e-17
0.000500001
-8.04913e-17
0.000500001
-1.35725e-16
0.000500001
-5.02377e-17
0.000500001
7.70219e-17
8.3822e-17
0.000500001
-3.91875e-16
0.000500001
-4.34098e-16
0.000500001
-2.64234e-16
0.000500001
-2.43694e-16
0.000500001
-3.4528e-16
0.000500001
-3.36953e-16
0.000500001
-7.93811e-17
0.000500001
1.45439e-16
0.000500001
1.48215e-16
0.000500001
-6.82788e-17
0.000500001
-2.85883e-16
0.000500001
-2.07057e-16
0.000500001
5.60664e-17
0.000500001
1.55432e-16
0.000500001
7.77158e-18
0.000500001
-1.06582e-16
0.000500001
-7.21646e-18
0.000500001
1.74305e-16
0.000500001
2.32592e-16
1.11023e-16
0.000500001
7.77158e-18
0.000500001
-9.54794e-17
0.000500001
-3.51941e-16
0.000500001
-3.9524e-16
0.000500001
-2.28706e-16
0.000500001
-2.77556e-18
0.000500001
-5.38459e-17
0.000500001
-2.77556e-16
0.000500001
-2.84773e-16
0.000500001
-7.54953e-17
0.000500001
1.13798e-16
0.000500001
1.80412e-16
0.000500001
1.45439e-16
0.000500001
3.77477e-17
0.000500001
-4.55192e-17
0.000500001
1.69309e-17
0.000500001
1.87628e-16
0.000500001
2.79083e-16
0.000500001
1.93734e-16
4.32294e-17
0.000500001
-2.06537e-16
0.000500001
-3.34317e-16
0.000500001
-3.03091e-16
0.000500001
-1.30174e-16
0.000500001
1.0103e-16
0.000500001
2.59793e-16
0.000500001
9.82549e-17
0.000500001
-1.95955e-16
0.000500001
-2.50911e-16
0.000500001
-4.88499e-17
0.000500001
1.4877e-16
0.000500001
1.34337e-16
0.000500001
-1.88738e-17
0.000500001
-9.54794e-17
0.000500001
-5.55113e-18
0.000500001
1.45995e-16
0.000500001
2.14829e-16
0.000500001
1.28092e-16
0.000500001
-2.58127e-17
-7.553e-17
0.000500001
0.000500001
0.000500001
0.000500001
0.000500001
0.000500001
0.000500001
0.000500001
0.000500001
0.000500001
0.000500001
0.000500001
0.000500001
0.000500001
0.000500001
0.000500001
0.000500001
0.000500001
0.000500001
)
;

boundaryField
{
    x0
    {
        type            calculated;
        value           nonuniform List<scalar> 10(-0.000500001 -0.000500001 -0.000500001 -0.000500001 -0.000500001 -0.000500001 -0.000500001 -0.000500001 -0.000500001 -0.000500001);
    }
    x1
    {
        type            calculated;
        value           nonuniform List<scalar> 10(0.000500001 0.000500001 0.000500001 0.000500001 0.000500001 0.000500001 0.000500001 0.000500001 0.000500001 0.000500001);
    }
    y0
    {
        type            calculated;
        value           uniform 0;
    }
    y1
    {
        type            calculated;
        value           uniform 0;
    }
    z0
    {
        type            empty;
        value           nonuniform 0();
    }
    z1
    {
        type            empty;
        value           nonuniform 0();
    }
}


// ************************************************************************* //
