/*--------------------------------*- C++ -*----------------------------------*\
  =========                 |
  \\      /  F ield         | OpenFOAM: The Open Source CFD Toolbox
   \\    /   O peration     | Website:  https://openfoam.org
    \\  /    A nd           | Version:  7
     \\/     M anipulation  |
\*---------------------------------------------------------------------------*/
FoamFile
{
    version     2.0;
    format      ascii;
    class       volVectorField;
    location    "500";
    object      Utheta;
}
// * * * * * * * * * * * * * * * * * * * * * * * * * * * * * * * * * * * * * //

dimensions      [0 1 -1 0 0 0 0];

internalField   nonuniform List<vector> 
200
(
(0.00500001 4.4409e-17 0)
(0.00500001 1.27024e-15 0)
(0.00500001 3.75256e-15 0)
(0.00500001 3.4417e-15 0)
(0.00500001 1.15463e-15 0)
(0.00500001 1.65424e-15 0)
(0.00500001 -2.88659e-16 0)
(0.00500001 -4.25355e-16 0)
(0.00500001 5.99522e-16 0)
(0.00500001 1.25455e-15 0)
(0.00500001 1.39333e-15 0)
(0.00500001 1.06582e-15 0)
(0.00500001 1.69864e-15 0)
(0.00500001 1.23055e-15 0)
(0.00500001 -7.60504e-16 0)
(0.00500001 -1.56819e-15 0)
(0.00500001 -7.64251e-16 0)
(0.00500001 3.1919e-17 0)
(0.00500001 6.53645e-16 0)
(0.00500001 7.67443e-16 0)
(0.00500001 -8.91649e-17 0)
(0.00500001 1.18468e-15 0)
(0.00500001 1.84714e-15 0)
(0.00500001 3.09336e-15 0)
(0.00500001 2.85467e-15 0)
(0.00500001 2.98373e-15 0)
(0.00500001 1.88461e-15 0)
(0.00500001 1.28058e-15 0)
(0.00500001 1.09635e-15 0)
(0.00500001 7.41075e-16 0)
(0.00500001 8.40995e-16 0)
(0.00500001 4.9405e-16 0)
(0.00500001 6.93891e-16 0)
(0.00500001 1.40908e-15 0)
(0.00500001 8.24342e-16 0)
(0.00500001 -4.5658e-16 0)
(0.00500001 -7.09642e-16 0)
(0.00500001 2.15106e-17 0)
(0.00500001 7.67443e-16 0)
(0.00500001 6.61104e-16 0)
(0.00500001 -9.04833e-16 0)
(0.00500001 2.85883e-15 0)
(0.00500001 9.05527e-16 0)
(0.00500001 3.02259e-15 0)
(0.00500001 4.52555e-15 0)
(0.00500001 3.42227e-15 0)
(0.00500001 3.24186e-15 0)
(0.00500001 1.8735e-15 0)
(0.00500001 1.17129e-15 0)
(0.00500001 1.36003e-16 0)
(0.00500001 1.80412e-16 0)
(0.00500001 6.30053e-16 0)
(0.00500001 5.41235e-16 0)
(0.00500001 1.29064e-15 0)
(0.00500001 1.64591e-15 0)
(0.00500001 6.43931e-16 0)
(0.00500001 -1.80412e-17 0)
(0.00500001 4.03844e-16 0)
(0.00500001 6.41155e-16 0)
(0.00500001 2.49454e-16 0)
(0.00500001 4.1113e-16 0)
(0.00500001 2.86993e-15 0)
(0.00500001 3.45974e-15 0)
(0.00500001 3.2141e-15 0)
(0.00500001 3.30708e-15 0)
(0.00500001 1.19627e-15 0)
(0.00500001 2.06779e-15 0)
(0.00500001 1.60705e-15 0)
(0.00500001 9.07609e-16 0)
(0.00500001 -7.21646e-16 0)
(0.00500001 -7.77158e-17 0)
(0.00500001 1.53766e-15 0)
(0.00500001 5.77317e-16 0)
(0.00500001 -9.15936e-16 0)
(0.00500001 -6.24502e-16 0)
(0.00500001 2.27596e-16 0)
(0.00500001 4.8156e-16 0)
(0.00500001 3.19884e-16 0)
(0.00500001 -6.86952e-17 0)
(0.00500001 -1.76595e-16 0)
(0.00500001 -7.99535e-16 0)
(0.00500001 -7.49402e-16 0)
(0.00500001 1.76873e-15 0)
(0.00500001 -8.07689e-16 0)
(0.00500001 -6.46706e-16 0)
(0.00500001 2.66454e-16 0)
(0.00500001 1.15186e-15 0)
(0.00500001 8.35444e-16 0)
(0.00500001 5.99522e-16 0)
(0.00500001 2.05392e-16 0)
(0.00500001 1.24623e-15 0)
(0.00500001 1.71807e-15 0)
(0.00500001 -4.52417e-16 0)
(0.00500001 -2.39531e-15 0)
(0.00500001 -1.69864e-15 0)
(0.00500001 -3.5666e-16 0)
(0.00500001 -3.74701e-16 0)
(0.00500001 -8.18791e-16 0)
(0.00500001 -6.30053e-16 0)
(0.00500001 -1.12757e-16 0)
(0.00500001 2.27423e-16 0)
(0.00500001 -1.65909e-15 0)
(0.00500001 -2.91365e-15 0)
(0.00500001 -3.01149e-15 0)
(0.00500001 -2.04975e-15 0)
(0.00500001 -1.00475e-15 0)
(0.00500001 -1.89848e-15 0)
(0.00500001 -1.66256e-15 0)
(0.00500001 2.77556e-17 0)
(0.00500001 7.35524e-16 0)
(0.00500001 8.8818e-17 0)
(0.00500001 -5.55113e-16 0)
(0.00500001 -6.43931e-16 0)
(0.00500001 -4.60743e-16 0)
(0.00500001 -3.46945e-16 0)
(0.00500001 -6.70298e-16 0)
(0.00500001 -1.22541e-15 0)
(0.00500001 -9.9157e-16 0)
(0.00500001 2.42862e-17 0)
(0.00500001 4.55019e-16 0)
(0.00500001 2.72179e-16 0)
(0.00500001 -2.51952e-15 0)
(0.00500001 -3.47847e-15 0)
(0.00500001 -1.85824e-15 0)
(0.00500001 -2.07057e-15 0)
(0.00500001 -3.02536e-15 0)
(0.00500001 -2.59238e-15 0)
(0.00500001 -5.4401e-16 0)
(0.00500001 7.02217e-16 0)
(0.00500001 -5.55113e-16 0)
(0.00500001 -2.70062e-15 0)
(0.00500001 -2.43972e-15 0)
(0.00500001 -3.05312e-17 0)
(0.00500001 1.29896e-15 0)
(0.00500001 3.24741e-16 0)
(0.00500001 -9.35365e-16 0)
(0.00500001 -7.14707e-16 0)
(0.00500001 6.20338e-16 0)
(0.00500001 1.54807e-15 0)
(0.00500001 9.74222e-16 0)
(0.00500001 -1.92052e-15 0)
(0.00500001 -2.64789e-15 0)
(0.00500001 -3.08087e-15 0)
(0.00500001 -3.19467e-15 0)
(0.00500001 -2.86993e-15 0)
(0.00500001 -1.69864e-15 0)
(0.00500001 -6.66135e-16 0)
(0.00500001 -6.60584e-16 0)
(0.00500001 -6.82788e-16 0)
(0.00500001 -7.18871e-16 0)
(0.00500001 -8.60424e-16 0)
(0.00500001 -1.33227e-16 0)
(0.00500001 1.00753e-15 0)
(0.00500001 9.65896e-16 0)
(0.00500001 -1.88738e-16 0)
(0.00500001 -4.48253e-16 0)
(0.00500001 9.02058e-16 0)
(0.00500001 2.26694e-15 0)
(0.00500001 2.13163e-15 0)
(0.00500001 7.71259e-16 0)
(0.00500001 -9.93825e-16 0)
(0.00500001 -2.14898e-15 0)
(0.00500001 -3.27516e-15 0)
(0.00500001 -2.62707e-15 0)
(0.00500001 -6.38379e-16 0)
(0.00500001 1.28509e-15 0)
(0.00500001 2.22045e-16 0)
(0.00500001 -2.36755e-15 0)
(0.00500001 -2.67842e-15 0)
(0.00500001 -6.21726e-16 0)
(0.00500001 1.31284e-15 0)
(0.00500001 1.57374e-15 0)
(0.00500001 6.32828e-16 0)
(0.00500001 -2.88659e-16 0)
(0.00500001 -2.55352e-16 0)
(0.00500001 8.14628e-16 0)
(0.00500001 2.01228e-15 0)
(0.00500001 2.03588e-15 0)
(0.00500001 8.39608e-16 0)
(0.00500001 -1.61503e-16 0)
(0.00500001 -2.06537e-15 0)
(0.00500001 -3.34317e-15 0)
(0.00500001 -3.03091e-15 0)
(0.00500001 -1.30174e-15 0)
(0.00500001 1.0103e-15 0)
(0.00500001 2.59793e-15 0)
(0.00500001 9.82549e-16 0)
(0.00500001 -1.95955e-15 0)
(0.00500001 -2.50911e-15 0)
(0.00500001 -4.88499e-16 0)
(0.00500001 1.4877e-15 0)
(0.00500001 1.34337e-15 0)
(0.00500001 -1.88738e-16 0)
(0.00500001 -9.54794e-16 0)
(0.00500001 -5.55113e-17 0)
(0.00500001 1.45995e-15 0)
(0.00500001 2.14829e-15 0)
(0.00500001 1.28092e-15 0)
(0.00500001 -2.58127e-16 0)
(0.00500001 -7.553e-16 0)
)
;

boundaryField
{
    x0
    {
        type            zeroGradient;
    }
    x1
    {
        type            zeroGradient;
    }
    y0
    {
        type            zeroGradient;
    }
    y1
    {
        type            zeroGradient;
    }
    z0
    {
        type            empty;
    }
    z1
    {
        type            empty;
    }
}


// ************************************************************************* //
