/*--------------------------------*- C++ -*----------------------------------*\
  =========                 |
  \\      /  F ield         | OpenFOAM: The Open Source CFD Toolbox
   \\    /   O peration     | Website:  https://openfoam.org
    \\  /    A nd           | Version:  7
     \\/     M anipulation  |
\*---------------------------------------------------------------------------*/
FoamFile
{
    version     2.0;
    format      ascii;
    class       volScalarField;
    location    "450000";
    object      C;
}
// * * * * * * * * * * * * * * * * * * * * * * * * * * * * * * * * * * * * * //

dimensions      [0 0 0 0 0 0 0];

internalField   nonuniform List<scalar> 
200
(
-1.76847e-37
2.44455e-35
-3.19832e-33
4.01581e-31
-4.84075e-29
5.61185e-27
-6.2806e-25
6.83284e-23
-7.31269e-21
7.85762e-19
-8.78873e-17
1.09657e-14
-1.78629e-12
6.7414e-10
1.96189e-07
1.29386e-05
0.00033522
0.00372109
0.0176187
0.0369876
-1.57406e-38
2.19744e-36
-2.90481e-34
3.68571e-32
-4.48923e-30
5.25571e-28
-5.93191e-26
6.49021e-24
-6.94947e-22
7.40033e-20
-8.05695e-18
9.43297e-16
-1.31837e-13
2.94073e-11
3.23105e-08
2.98665e-06
0.000101087
0.00152244
0.0104152
0.0313179
3.77752e-39
-5.38026e-37
7.25095e-35
-9.36847e-33
1.16014e-30
-1.37788e-28
1.57269e-26
-1.73204e-24
1.85376e-22
-1.95161e-20
2.06281e-18
-2.26802e-16
2.76938e-14
-4.31164e-12
1.28285e-09
3.1114e-07
1.81377e-05
0.000444538
0.00508806
0.0246499
9.73673e-41
-1.25208e-38
1.49658e-36
-1.67618e-34
1.73973e-32
-1.64069e-30
1.34714e-28
-8.47645e-27
1.4859e-25
7.40659e-23
-1.83974e-20
3.26287e-18
-5.38689e-16
9.45357e-14
-2.08305e-11
8.68455e-09
1.33431e-06
6.56997e-05
0.00160447
0.0177419
-5.33668e-40
7.51733e-38
-9.89848e-36
1.23113e-33
-1.44038e-31
1.57771e-29
-1.60912e-27
1.51871e-25
-1.31737e-23
1.04293e-21
-7.49457e-20
4.8906e-18
-2.9416e-16
1.68827e-14
-9.17606e-13
1.89789e-11
2.38009e-08
3.74365e-06
0.000155806
0.00551208
-8.74273e-39
1.31093e-36
-1.84859e-34
2.47772e-32
-3.14702e-30
3.77443e-28
-4.25712e-26
4.49344e-24
-4.41294e-22
4.00446e-20
-3.32942e-18
2.51023e-16
-1.69442e-14
1.00774e-12
-5.17648e-11
2.24101e-09
-7.95023e-08
2.29107e-06
-4.18776e-05
0.00114604
-1.51034e-38
2.35712e-36
-3.45923e-34
4.82086e-32
-6.35679e-30
7.89519e-28
-9.18494e-26
9.93968e-24
-9.91999e-22
9.03319e-20
-7.40616e-18
5.37852e-16
-3.39172e-14
1.81376e-12
-8.00205e-11
2.8238e-09
-7.70267e-08
1.56228e-06
-2.2257e-05
0.000207662
-8.26997e-39
1.3367e-36
-2.03124e-34
2.92836e-32
-3.98851e-30
5.10514e-28
-6.09936e-26
6.74435e-24
-6.82866e-22
6.24725e-20
-5.08012e-18
3.59948e-16
-2.17012e-14
1.08296e-12
-4.33465e-11
1.34325e-09
-3.09533e-08
5.04501e-07
-5.37298e-06
3.02634e-05
-1.87847e-39
3.12777e-37
-4.89674e-35
7.26971e-33
-1.01882e-30
1.33998e-28
-1.64148e-26
1.85508e-24
-1.91098e-22
1.7678e-20
-1.442e-18
1.01464e-16
-6.00148e-15
2.89637e-13
-1.10246e-11
3.18381e-10
-6.66114e-09
9.49573e-08
-8.3236e-07
3.40077e-06
-1.88954e-40
3.20537e-38
-5.11367e-36
7.73544e-34
-1.10432e-31
1.47871e-29
-1.84253e-27
2.11499e-25
-2.20836e-23
2.06482e-21
-1.69605e-19
1.19623e-17
-7.05323e-16
3.37128e-14
-1.26126e-12
3.54651e-11
-7.13188e-10
9.57125e-09
-7.5882e-08
2.53365e-07
)
;

boundaryField
{
    x0
    {
        type            fixedValue;
        value           uniform 0;
    }
    x1
    {
        type            inletOutlet;
        inletValue      uniform 0.0357;
        value           nonuniform List<scalar> 10(0.0357 0.0357 0.0357 0.0357 0.0357 0.00114604 0.000207662 3.02634e-05 3.40077e-06 2.53365e-07);
    }
    y0
    {
        type            zeroGradient;
    }
    y1
    {
        type            zeroGradient;
    }
    z0
    {
        type            empty;
    }
    z1
    {
        type            empty;
    }
}


// ************************************************************************* //
