/*--------------------------------*- C++ -*----------------------------------*\
  =========                 |
  \\      /  F ield         | OpenFOAM: The Open Source CFD Toolbox
   \\    /   O peration     | Website:  https://openfoam.org
    \\  /    A nd           | Version:  7
     \\/     M anipulation  |
\*---------------------------------------------------------------------------*/
FoamFile
{
    version     2.0;
    format      ascii;
    class       volScalarField;
    location    "450000";
    object      C_0;
}
// * * * * * * * * * * * * * * * * * * * * * * * * * * * * * * * * * * * * * //

dimensions      [0 0 0 0 0 0 0];

internalField   nonuniform List<scalar> 
200
(
-1.7638e-37
2.43841e-35
-3.19072e-33
4.0068e-31
-4.83053e-29
5.60073e-27
-6.26899e-25
6.8211e-23
-7.30108e-21
7.84617e-19
-8.77706e-17
1.09526e-14
-1.78436e-12
6.73467e-10
1.96029e-07
1.29301e-05
0.000335052
0.00371985
0.0176157
0.0369863
-1.56969e-38
2.19162e-36
-2.89751e-34
3.67692e-32
-4.47912e-30
5.24455e-28
-5.92008e-26
6.47812e-24
-6.93742e-22
7.38844e-20
-8.04502e-18
9.42016e-16
-1.31673e-13
2.93739e-11
3.22832e-08
2.98461e-06
0.000101033
0.00152187
0.010413
0.031316
3.76743e-39
-5.36658e-37
7.23346e-35
-9.34708e-33
1.15764e-30
-1.37509e-28
1.56971e-26
-1.72898e-24
1.85073e-22
-1.94866e-20
2.05996e-18
-2.26516e-16
2.76623e-14
-4.3072e-12
1.28165e-09
3.1091e-07
1.81272e-05
0.00044435
0.00508674
0.0246477
9.70921e-41
-1.24868e-38
1.49265e-36
-1.67193e-34
1.73544e-32
-1.6367e-30
1.3438e-28
-8.45258e-27
1.47398e-25
7.40501e-23
-1.83812e-20
3.25959e-18
-5.38144e-16
9.44434e-14
-2.08112e-11
8.67697e-09
1.33341e-06
6.56665e-05
0.00160393
0.0177396
-5.3214e-40
7.49682e-38
-9.87285e-36
1.22812e-33
-1.43706e-31
1.5743e-29
-1.60589e-27
1.5159e-25
-1.31515e-23
1.04136e-21
-7.48481e-20
4.88537e-18
-2.93923e-16
1.68738e-14
-9.17387e-13
1.90076e-11
2.37778e-08
3.74139e-06
0.000155731
0.00551022
-8.71732e-39
1.30729e-36
-1.84371e-34
2.47151e-32
-3.13954e-30
3.76597e-28
-4.24815e-26
4.48458e-24
-4.40483e-22
3.99765e-20
-3.3242e-18
2.50664e-16
-1.69223e-14
1.00658e-12
-5.17122e-11
2.23905e-09
-7.94439e-08
2.28969e-06
-4.18592e-05
0.00114559
-1.50576e-38
2.35029e-36
-3.44966e-34
4.80817e-32
-6.34089e-30
7.87649e-28
-9.16441e-26
9.91879e-24
-9.90047e-22
9.01662e-20
-7.39357e-18
5.37011e-16
-3.38687e-14
1.81141e-12
-7.99279e-11
2.82092e-09
-7.6959e-08
1.56113e-06
-2.22437e-05
0.000207562
-8.24385e-39
1.33266e-36
-2.02536e-34
2.92027e-32
-3.97802e-30
5.09239e-28
-6.08494e-26
6.7293e-24
-6.81434e-22
6.23498e-20
-5.07083e-18
3.59338e-16
-2.16674e-14
1.08141e-12
-4.32907e-11
1.3417e-09
-3.0922e-08
5.0406e-07
-5.36903e-06
3.02454e-05
-1.87229e-39
3.1179e-37
-4.88193e-35
7.24869e-33
-1.01601e-30
1.33646e-28
-1.63739e-26
1.8507e-24
-1.90672e-22
1.7641e-20
-1.43917e-18
1.01279e-16
-5.99135e-15
2.89188e-13
-1.1009e-11
3.17973e-10
-6.65353e-09
9.4862e-08
-8.31643e-07
3.39835e-06
-1.88307e-40
3.19482e-38
-5.09752e-36
7.71204e-34
-1.10112e-31
1.47463e-29
-1.83769e-27
2.10972e-25
-2.20315e-23
2.06022e-21
-1.69251e-19
1.1939e-17
-7.0404e-16
3.3656e-14
-1.25931e-12
3.54152e-11
-7.12282e-10
9.56045e-09
-7.58073e-08
2.53157e-07
)
;

boundaryField
{
    x0
    {
        type            fixedValue;
        value           uniform 0;
    }
    x1
    {
        type            inletOutlet;
        inletValue      uniform 0.0357;
        value           nonuniform List<scalar> 10(0.0357 0.0357 0.0357 0.0357 0.0357 0.00114559 0.000207562 3.02454e-05 3.39835e-06 2.53157e-07);
    }
    y0
    {
        type            zeroGradient;
    }
    y1
    {
        type            zeroGradient;
    }
    z0
    {
        type            empty;
    }
    z1
    {
        type            empty;
    }
}


// ************************************************************************* //
