/*--------------------------------*- C++ -*----------------------------------*\
  =========                 |
  \\      /  F ield         | OpenFOAM: The Open Source CFD Toolbox
   \\    /   O peration     | Website:  https://openfoam.org
    \\  /    A nd           | Version:  7
     \\/     M anipulation  |
\*---------------------------------------------------------------------------*/
FoamFile
{
    version     2.0;
    format      ascii;
    class       surfaceScalarField;
    location    "450000";
    object      phi;
}
// * * * * * * * * * * * * * * * * * * * * * * * * * * * * * * * * * * * * * //

dimensions      [0 3 -1 0 0 0 0];

internalField   nonuniform List<scalar> 
370
(
6.56075e-06
3.92517e-08
6.51765e-06
4.31018e-08
6.46646e-06
5.11823e-08
6.40217e-06
6.42921e-08
6.31844e-06
8.37307e-08
6.20701e-06
1.11433e-07
6.05683e-06
1.50176e-07
5.85295e-06
2.0388e-07
5.57488e-06
2.78069e-07
5.19431e-06
3.80568e-07
4.67168e-06
5.2263e-07
3.95078e-06
7.20908e-07
2.94953e-06
1.00125e-06
1.54257e-06
1.40696e-06
-4.76583e-07
2.01915e-06
-3.48552e-06
3.00894e-06
-8.16896e-06
4.68344e-06
-1.49061e-05
6.73719e-06
-2.0612e-05
5.70589e-06
-6.69656e-07
6.5646e-06
7.46531e-08
6.52573e-06
8.19733e-08
6.47957e-06
9.73354e-08
6.42161e-06
1.22255e-07
6.34614e-06
1.59197e-07
6.24575e-06
2.11827e-07
6.11054e-06
2.8539e-07
5.92714e-06
3.87275e-07
5.67738e-06
5.2783e-07
5.33638e-06
7.21572e-07
4.86996e-06
9.89044e-07
4.23112e-06
1.35975e-06
3.35523e-06
1.87713e-06
2.15485e-06
2.60734e-06
5.18691e-07
3.65531e-06
-1.66396e-06
5.19158e-06
-4.43323e-06
7.45271e-06
-7.96198e-06
1.02659e-05
-1.28918e-05
1.06357e-05
2.8732e-06
6.57192e-06
1.02734e-07
6.54109e-06
1.12803e-07
6.50449e-06
1.3393e-07
6.45855e-06
1.68196e-07
6.39877e-06
2.18977e-07
6.31931e-06
2.91286e-07
6.21242e-06
3.92282e-07
6.0677e-06
5.32001e-07
5.87112e-06
7.24402e-07
5.60385e-06
9.88848e-07
5.24067e-06
1.35222e-06
4.7485e-06
1.85193e-06
4.08544e-06
2.54019e-06
3.20283e-06
3.48996e-06
2.05611e-06
4.80203e-06
6.37723e-07
6.60997e-06
-9.73525e-07
9.06396e-06
-2.85547e-06
1.21479e-05
-6.4919e-06
1.42722e-05
7.75699e-06
6.58199e-06
1.20747e-07
6.56222e-06
1.32574e-07
6.53876e-06
1.57387e-07
6.50933e-06
1.97622e-07
6.47108e-06
2.57228e-07
6.42031e-06
3.42059e-07
6.35214e-06
4.60451e-07
6.2601e-06
6.24045e-07
6.13557e-06
8.48929e-07
5.96722e-06
1.1572e-06
5.74038e-06
1.57906e-06
5.43677e-06
2.15554e-06
5.03521e-06
2.94175e-06
4.5149e-06
4.01027e-06
3.86415e-06
5.45277e-06
3.09841e-06
7.37571e-06
2.2821e-06
9.88028e-06
1.43204e-06
1.29979e-05
-5.13199e-07
1.62174e-05
1.38246e-05
6.59381e-06
1.26933e-07
6.58703e-06
1.39358e-07
6.57899e-06
1.65422e-07
6.56894e-06
2.07677e-07
6.55591e-06
2.70254e-07
6.5387e-06
3.59271e-07
6.51573e-06
4.83419e-07
6.48498e-06
6.548e-07
6.44384e-06
8.90068e-07
6.38908e-06
1.21196e-06
6.31685e-06
1.65129e-06
6.22298e-06
2.24941e-06
6.10372e-06
3.06101e-06
5.95741e-06
4.15658e-06
5.78709e-06
5.62309e-06
5.60345e-06
7.55934e-06
5.42358e-06
1.00601e-05
5.24307e-06
1.31785e-05
4.61555e-06
1.68449e-05
1.89649e-05
6.60624e-06
1.20695e-07
6.61309e-06
1.32502e-07
6.62125e-06
1.57268e-07
6.63152e-06
1.97409e-07
6.64493e-06
2.56841e-07
6.66285e-06
3.41351e-07
6.68712e-06
4.59154e-07
6.72025e-06
6.21668e-07
6.76573e-06
8.44583e-07
6.82841e-06
1.14928e-06
6.91497e-06
1.56472e-06
7.03458e-06
2.1298e-06
7.1993e-06
2.89628e-06
7.42392e-06
3.93197e-06
7.72334e-06
5.32366e-06
8.10424e-06
7.17845e-06
8.54402e-06
9.62037e-06
8.94726e-06
1.27752e-05
9.02518e-06
1.6767e-05
2.11235e-05
6.61805e-06
1.0265e-07
6.63786e-06
1.12686e-07
6.66139e-06
1.33737e-07
6.69095e-06
1.67852e-07
6.72944e-06
2.1835e-07
6.78065e-06
2.90138e-07
6.84963e-06
3.90176e-07
6.94316e-06
5.28136e-07
7.07043e-06
7.17314e-07
7.24385e-06
9.75868e-07
7.48006e-06
1.32851e-06
7.80106e-06
1.8088e-06
8.23498e-06
2.46236e-06
8.81561e-06
3.35134e-06
9.57813e-06
4.56115e-06
1.05461e-05
6.21047e-06
1.17003e-05
8.4662e-06
1.29152e-05
1.15603e-05
1.38777e-05
1.58045e-05
2.13486e-05
6.62808e-06
7.45686e-08
6.65891e-06
8.18565e-08
6.69551e-06
9.71416e-08
6.74145e-06
1.21911e-07
6.80123e-06
1.5857e-07
6.88069e-06
2.10676e-07
6.98759e-06
2.83276e-07
7.13234e-06
3.83386e-07
7.32899e-06
5.20667e-07
7.59649e-06
7.08367e-07
7.96035e-06
9.64647e-07
8.45461e-06
1.31455e-06
9.12397e-06
1.793e-06
1.00254e-05
2.44989e-06
1.12274e-05
3.35912e-06
1.28018e-05
4.63612e-06
1.47951e-05
6.47288e-06
1.71491e-05
9.20631e-06
1.95147e-05
1.34389e-05
2.00942e-05
6.63537e-06
3.91994e-08
6.6742e-06
4.30296e-08
6.72028e-06
5.10625e-08
6.77811e-06
6.40789e-08
6.85333e-06
8.33424e-08
6.95329e-06
1.10721e-07
7.0877e-06
1.48865e-07
7.26962e-06
2.01464e-07
7.51669e-06
2.73604e-07
7.85277e-06
3.72284e-07
8.31025e-06
5.07165e-07
8.93307e-06
6.9173e-07
9.78086e-06
9.45208e-07
1.09346e-05
1.2961e-06
1.25045e-05
1.78931e-06
1.46385e-05
2.50203e-06
1.75288e-05
3.58267e-06
2.13793e-05
5.35574e-06
2.61839e-05
8.63438e-06
1.57409e-05
6.6392e-06
6.68223e-06
6.73329e-06
6.79737e-06
6.88071e-06
6.99143e-06
7.1403e-06
7.34176e-06
7.61537e-06
7.98765e-06
8.49482e-06
9.18654e-06
1.01318e-05
1.14279e-05
1.32172e-05
1.57192e-05
1.93019e-05
2.46576e-05
3.3292e-05
)
;

boundaryField
{
    x0
    {
        type            calculated;
        value           nonuniform List<scalar> 10(-6.6e-06 -6.6e-06 -6.6e-06 -6.6e-06 -6.6e-06 -6.6e-06 -6.6e-06 -6.6e-06 -6.6e-06 -6.6e-06);
    }
    x1
    {
        type            calculated;
        value           nonuniform List<scalar> 10(-1.99424e-05 -1.64347e-05 -1.13757e-05 -6.58078e-06 -5.24731e-07 6.86658e-06 1.36526e-05 2.0769e-05 3.05372e-05 4.90329e-05);
    }
    y0
    {
        type            calculated;
        value           uniform 0;
    }
    y1
    {
        type            calculated;
        value           uniform 0;
    }
    z0
    {
        type            empty;
        value           nonuniform 0();
    }
    z1
    {
        type            empty;
        value           nonuniform 0();
    }
}


// ************************************************************************* //
