/*--------------------------------*- C++ -*----------------------------------*\
  =========                 |
  \\      /  F ield         | OpenFOAM: The Open Source CFD Toolbox
   \\    /   O peration     | Website:  https://openfoam.org
    \\  /    A nd           | Version:  7
     \\/     M anipulation  |
\*---------------------------------------------------------------------------*/
FoamFile
{
    version     2.0;
    format      ascii;
    class       volVectorField;
    location    "450000";
    object      Utheta;
}
// * * * * * * * * * * * * * * * * * * * * * * * * * * * * * * * * * * * * * //

dimensions      [0 1 -1 0 0 0 0];

internalField   nonuniform List<vector> 
200
(
(6.58037e-05 3.92517e-07 0)
(6.5392e-05 4.31018e-07 0)
(6.49206e-05 5.11823e-07 0)
(6.43432e-05 6.42921e-07 0)
(6.36031e-05 8.37307e-07 0)
(6.26272e-05 1.11433e-06 0)
(6.13192e-05 1.50176e-06 0)
(5.95489e-05 2.0388e-06 0)
(5.71392e-05 2.78069e-06 0)
(5.3846e-05 3.80568e-06 0)
(4.933e-05 5.2263e-06 0)
(4.31123e-05 7.20908e-06 0)
(3.45015e-05 1.00125e-05 0)
(2.24605e-05 1.40696e-05 0)
(5.32994e-06 2.01915e-05 0)
(-1.98105e-05 3.00894e-05 0)
(-5.82724e-05 4.68344e-05 0)
(-0.000115376 6.73719e-05 0)
(-0.000177591 5.70589e-05 0)
(-0.000202772 -6.69656e-06 0)
(6.5823e-05 5.69524e-07 0)
(6.54516e-05 6.25376e-07 0)
(6.50265e-05 7.42588e-07 0)
(6.45059e-05 9.32737e-07 0)
(6.38388e-05 1.21464e-06 0)
(6.29595e-05 1.6163e-06 0)
(6.17814e-05 2.17783e-06 0)
(6.01884e-05 2.95578e-06 0)
(5.80226e-05 4.0295e-06 0)
(5.50688e-05 5.5107e-06 0)
(5.10317e-05 7.55837e-06 0)
(4.55054e-05 1.04033e-05 0)
(3.79318e-05 1.43919e-05 0)
(2.75504e-05 2.00715e-05 0)
(1.33677e-05 2.83723e-05 0)
(-5.72633e-06 4.10026e-05 0)
(-3.04859e-05 6.06807e-05 0)
(-6.19761e-05 8.50157e-05 0)
(-0.000104269 8.17081e-05 0)
(-0.000146632 1.10177e-05 0)
(6.58596e-05 8.86938e-07 0)
(6.5565e-05 9.73882e-07 0)
(6.52279e-05 1.15633e-06 0)
(6.48152e-05 1.45226e-06 0)
(6.42866e-05 1.89087e-06 0)
(6.35904e-05 2.51557e-06 0)
(6.26587e-05 3.38836e-06 0)
(6.14006e-05 4.59638e-06 0)
(5.96941e-05 6.26116e-06 0)
(5.73749e-05 8.5521e-06 0)
(5.42226e-05 1.17063e-05 0)
(4.99459e-05 1.60584e-05 0)
(4.41697e-05 2.20866e-05 0)
(3.64413e-05 3.04865e-05 0)
(2.62947e-05 4.22867e-05 0)
(1.34691e-05 5.90078e-05 0)
(-1.67901e-06 8.25833e-05 0)
(-1.9145e-05 0.000112069 0)
(-4.67368e-05 0.000124539 0)
(-8.93379e-05 5.3151e-05 0)
(6.59099e-05 1.11741e-06 0)
(6.5721e-05 1.22688e-06 0)
(6.55049e-05 1.45659e-06 0)
(6.52405e-05 1.82909e-06 0)
(6.49021e-05 2.38103e-06 0)
(6.4457e-05 3.16673e-06 0)
(6.38623e-05 4.26367e-06 0)
(6.30612e-05 5.78023e-06 0)
(6.19783e-05 7.86665e-06 0)
(6.05139e-05 1.07302e-05 0)
(5.8538e-05 1.46564e-05 0)
(5.58857e-05 2.00373e-05 0)
(5.23599e-05 2.74097e-05 0)
(4.77505e-05 3.75011e-05 0)
(4.18953e-05 5.1274e-05 0)
(3.48128e-05 6.99284e-05 0)
(2.69025e-05 9.47212e-05 0)
(1.85707e-05 0.000125729 0)
(4.59418e-06 0.000152448 0)
(-3.54699e-05 0.000107908 0)
(6.59691e-05 1.2384e-06 0)
(6.59042e-05 1.35966e-06 0)
(6.58301e-05 1.61405e-06 0)
(6.57397e-05 2.0265e-06 0)
(6.56243e-05 2.63741e-06 0)
(6.54731e-05 3.50665e-06 0)
(6.52722e-05 4.71935e-06 0)
(6.50036e-05 6.39423e-06 0)
(6.46441e-05 8.69498e-06 0)
(6.41646e-05 1.18458e-05 0)
(6.35297e-05 1.61517e-05 0)
(6.26992e-05 2.20247e-05 0)
(6.16335e-05 3.00138e-05 0)
(6.03057e-05 4.08343e-05 0)
(5.87225e-05 5.53793e-05 0)
(5.69527e-05 7.46753e-05 0)
(5.51352e-05 9.97021e-05 0)
(5.33332e-05 0.000130882 0)
(4.92931e-05 0.000165311 0)
(2.04541e-05 0.000163947 0)
(6.60312e-05 1.23814e-06 0)
(6.60967e-05 1.3593e-06 0)
(6.61717e-05 1.61345e-06 0)
(6.62638e-05 2.02543e-06 0)
(6.63822e-05 2.63548e-06 0)
(6.65389e-05 3.50311e-06 0)
(6.67498e-05 4.71286e-06 0)
(6.70368e-05 6.38234e-06 0)
(6.74299e-05 8.67326e-06 0)
(6.79707e-05 1.18062e-05 0)
(6.87169e-05 1.608e-05 0)
(6.97478e-05 2.18961e-05 0)
(7.11694e-05 2.97865e-05 0)
(7.31161e-05 4.04428e-05 0)
(7.57363e-05 5.47338e-05 0)
(7.91379e-05 7.3689e-05 0)
(8.32413e-05 9.84026e-05 0)
(8.74564e-05 0.000129768 0)
(8.98622e-05 0.000168059 0)
(7.94588e-05 0.000200442 0)
(6.60902e-05 1.11672e-06 0)
(6.62795e-05 1.22594e-06 0)
(6.64963e-05 1.45502e-06 0)
(6.67617e-05 1.82631e-06 0)
(6.71019e-05 2.37596e-06 0)
(6.75505e-05 3.15745e-06 0)
(6.81514e-05 4.24665e-06 0)
(6.8964e-05 5.74902e-06 0)
(7.0068e-05 7.80948e-06 0)
(7.15714e-05 1.06258e-05 0)
(7.36195e-05 1.44662e-05 0)
(7.64056e-05 1.9693e-05 0)
(8.01802e-05 2.67932e-05 0)
(8.5253e-05 3.64165e-05 0)
(9.19687e-05 4.94241e-05 0)
(0.000100621 6.69446e-05 0)
(0.000111232 9.04328e-05 0)
(0.000123078 0.000121677 0)
(0.000133965 0.000162857 0)
(0.000137651 0.00021236 0)
(6.61404e-05 8.86093e-07 0)
(6.6435e-05 9.72713e-07 0)
(6.67721e-05 1.15439e-06 0)
(6.71848e-05 1.44881e-06 0)
(6.77134e-05 1.8846e-06 0)
(6.84096e-05 2.50407e-06 0)
(6.93414e-05 3.36726e-06 0)
(7.05997e-05 4.55761e-06 0)
(7.23066e-05 6.18991e-06 0)
(7.46274e-05 8.42118e-06 0)
(7.77842e-05 1.14658e-05 0)
(8.20748e-05 1.56167e-05 0)
(8.78929e-05 2.12768e-05 0)
(9.57469e-05 2.90062e-05 0)
(0.000106264 3.96013e-05 0)
(0.000120146 5.42329e-05 0)
(0.000137985 7.46954e-05 0)
(0.000159721 0.000103833 0)
(0.000183319 0.000146217 0)
(0.000201418 0.000207214 0)
(6.61768e-05 5.6884e-07 0)
(6.65478e-05 6.2443e-07 0)
(6.69724e-05 7.4102e-07 0)
(6.74919e-05 9.29947e-07 0)
(6.81572e-05 1.20956e-06 0)
(6.90331e-05 1.60699e-06 0)
(7.02049e-05 2.1607e-06 0)
(7.17866e-05 2.92425e-06 0)
(7.39315e-05 3.97136e-06 0)
(7.68473e-05 5.40325e-06 0)
(8.08151e-05 7.35906e-06 0)
(8.62166e-05 1.00314e-05 0)
(9.35696e-05 1.3691e-05 0)
(0.000103578 1.873e-05 0)
(0.000117195 2.57421e-05 0)
(0.000135715 3.56907e-05 0)
(0.000160837 5.02778e-05 0)
(0.00019454 7.28102e-05 0)
(0.000237816 0.000110367 0)
(0.000283605 0.000179176 0)
(6.6196e-05 3.91994e-07 0)
(6.66071e-05 4.30296e-07 0)
(6.70776e-05 5.10625e-07 0)
(6.76533e-05 6.40789e-07 0)
(6.83904e-05 8.33424e-07 0)
(6.93607e-05 1.10721e-06 0)
(7.06587e-05 1.48865e-06 0)
(7.24103e-05 2.01464e-06 0)
(7.47856e-05 2.73604e-06 0)
(7.80151e-05 3.72284e-06 0)
(8.24123e-05 5.07165e-06 0)
(8.84068e-05 6.9173e-06 0)
(9.65915e-05 9.45208e-06 0)
(0.000107798 1.2961e-05 0)
(0.000123225 1.78931e-05 0)
(0.000144682 2.50203e-05 0)
(0.000175105 3.58267e-05 0)
(0.000219797 5.35574e-05 0)
(0.000289748 8.63438e-05 0)
(0.000411624 0.000157409 0)
)
;

boundaryField
{
    x0
    {
        type            fixedValue;
        value           uniform (6.6e-05 0 0);
    }
    x1
    {
        type            zeroGradient;
    }
    y0
    {
        type            zeroGradient;
    }
    y1
    {
        type            zeroGradient;
    }
    z0
    {
        type            empty;
    }
    z1
    {
        type            empty;
    }
}


// ************************************************************************* //
