/*--------------------------------*- C++ -*----------------------------------*\
  =========                 |
  \\      /  F ield         | OpenFOAM: The Open Source CFD Toolbox
   \\    /   O peration     | Website:  https://openfoam.org
    \\  /    A nd           | Version:  7
     \\/     M anipulation  |
\*---------------------------------------------------------------------------*/
FoamFile
{
    version     2.0;
    format      ascii;
    class       volScalarField;
    location    "570000";
    object      C;
}
// * * * * * * * * * * * * * * * * * * * * * * * * * * * * * * * * * * * * * //

dimensions      [0 0 0 0 0 0 0];

internalField   nonuniform List<scalar> 
200
(
-1.90398e-35
2.08897e-33
-2.16144e-31
2.14662e-29
-2.04711e-27
1.878e-25
-1.66384e-23
1.43371e-21
-1.21628e-19
1.03735e-17
-9.23205e-16
9.21271e-14
-1.21725e-11
4.04139e-09
8.40764e-07
4.17102e-05
0.000807433
0.00659153
0.0232558
0.0387982
-2.16207e-36
2.39926e-34
-2.5126e-32
2.52662e-30
-2.44012e-28
2.26647e-26
-2.03107e-24
1.76624e-22
-1.50529e-20
1.2785e-18
-1.11383e-16
1.04932e-14
-1.19309e-12
2.23483e-10
1.44864e-07
1.00224e-05
0.000256491
0.00290396
0.0147552
0.0342768
4.25051e-37
-4.82263e-35
5.15955e-33
-5.29286e-31
5.2052e-29
-4.91118e-27
4.45532e-25
-3.90276e-23
3.32609e-21
-2.79326e-19
2.36196e-17
-2.08775e-15
2.06738e-13
-2.65449e-11
6.78616e-09
1.15563e-06
5.03854e-05
0.000932804
0.00790826
0.0282676
1.54725e-38
-1.65346e-36
1.65577e-34
-1.57834e-32
1.42703e-30
-1.21771e-28
9.72992e-27
-7.17576e-25
4.7328e-23
-2.54968e-21
6.78018e-20
9.50211e-18
-2.57867e-15
4.87649e-13
-1.0397e-10
4.07877e-08
4.41789e-06
0.000160551
0.00289741
0.021855
-8.75714e-38
9.69644e-36
-9.96926e-34
9.64417e-32
-8.72982e-30
7.34313e-28
-5.68881e-26
4.01053e-24
-2.52874e-22
1.38754e-20
-6.30116e-19
2.09744e-17
-2.75515e-16
-2.29198e-14
2.41233e-12
-2.8455e-10
1.24287e-07
1.09898e-05
0.000363174
0.00932603
-1.51706e-36
1.80154e-34
-2.00417e-32
2.11822e-30
-2.12036e-28
2.00297e-26
-1.77799e-24
1.47575e-22
-1.13857e-20
8.10783e-19
-5.28383e-17
3.1187e-15
-1.64586e-13
7.64257e-12
-3.0609e-10
1.03227e-08
-2.8573e-07
6.56124e-06
-9.08903e-05
0.00226986
-3.25524e-36
4.02664e-34
-4.66737e-32
5.13643e-30
-5.34703e-28
5.2414e-26
-4.81075e-24
4.10549e-22
-3.22935e-20
2.31608e-18
-1.49428e-16
8.53009e-15
-4.22258e-13
1.76971e-11
-6.10801e-10
1.68327e-08
-3.58269e-07
5.68104e-06
-6.3744e-05
0.000485356
-2.23837e-36
2.86761e-34
-3.44229e-32
3.91958e-30
-4.21569e-28
4.25989e-26
-4.0167e-24
3.50384e-22
-2.79728e-20
2.01653e-18
-1.29108e-16
7.19534e-15
-3.40807e-13
1.33428e-11
-4.18341e-10
1.01388e-08
-1.8247e-07
2.32132e-06
-1.93246e-05
8.53254e-05
-6.39627e-37
8.43976e-35
-1.04365e-32
1.22362e-30
-1.35399e-28
1.40568e-26
-1.3588e-24
1.21125e-22
-9.83672e-21
7.16927e-19
-4.60378e-17
2.54784e-15
-1.18404e-13
4.48418e-12
-1.3376e-10
3.0226e-09
-4.93935e-08
5.48662e-07
-3.7324e-06
1.16399e-05
-8.17458e-38
1.0985e-35
-1.38373e-33
1.65237e-31
-1.86169e-29
1.96675e-27
-1.93268e-25
1.74873e-23
-1.43845e-21
1.05879e-19
-6.84074e-18
3.79128e-16
-1.75459e-14
6.57428e-13
-1.92524e-11
4.22977e-10
-6.6292e-09
6.90505e-08
-4.21168e-07
1.04534e-06
)
;

boundaryField
{
    x0
    {
        type            fixedValue;
        value           uniform 0;
    }
    x1
    {
        type            inletOutlet;
        inletValue      uniform 0.0357;
        value           nonuniform List<scalar> 10(0.0357 0.0357 0.0357 0.0357 0.0357 0.00226986 0.000485356 8.53254e-05 1.16399e-05 1.04534e-06);
    }
    y0
    {
        type            zeroGradient;
    }
    y1
    {
        type            zeroGradient;
    }
    z0
    {
        type            empty;
    }
    z1
    {
        type            empty;
    }
}


// ************************************************************************* //
