/*--------------------------------*- C++ -*----------------------------------*\
  =========                 |
  \\      /  F ield         | OpenFOAM: The Open Source CFD Toolbox
   \\    /   O peration     | Website:  https://openfoam.org
    \\  /    A nd           | Version:  7
     \\/     M anipulation  |
\*---------------------------------------------------------------------------*/
FoamFile
{
    version     2.0;
    format      ascii;
    class       volScalarField;
    location    "570000";
    object      C_0;
}
// * * * * * * * * * * * * * * * * * * * * * * * * * * * * * * * * * * * * * //

dimensions      [0 0 0 0 0 0 0];

internalField   nonuniform List<scalar> 
200
(
-1.90002e-35
2.08484e-33
-2.1574e-31
2.14282e-29
-2.0437e-27
1.87507e-25
-1.66142e-23
1.43177e-21
-1.21476e-19
1.03616e-17
-9.2224e-16
9.204e-14
-1.21621e-11
4.03813e-09
8.40216e-07
4.16885e-05
0.000807121
0.00658991
0.0232532
0.0387976
-2.15734e-36
2.39426e-34
-2.50762e-32
2.52187e-30
-2.43579e-28
2.26268e-26
-2.02788e-24
1.76364e-22
-1.50323e-20
1.27688e-18
-1.11253e-16
1.04819e-14
-1.19192e-12
2.23281e-10
1.44767e-07
1.0017e-05
0.000256385
0.00290315
0.0147531
0.0342757
4.24162e-37
-4.81303e-35
5.14981e-33
-5.28342e-31
5.19644e-29
-4.90342e-27
4.44874e-25
-3.89739e-23
3.32185e-21
-2.78998e-19
2.35942e-17
-2.08571e-15
2.06554e-13
-2.65236e-11
6.7811e-09
1.15495e-06
5.03626e-05
0.000932501
0.00790678
0.028266
1.54374e-38
-1.64984e-36
1.65228e-34
-1.57513e-32
1.42423e-30
-1.21539e-28
9.71188e-27
-7.16264e-25
4.72401e-23
-2.54446e-21
6.75563e-20
9.50563e-18
-2.5773e-15
4.8732e-13
-1.03897e-10
4.07596e-08
4.41554e-06
0.000160487
0.00289666
0.0218532
-8.7372e-38
9.67541e-36
-9.94873e-34
9.6254e-32
-8.71384e-30
7.33057e-28
-5.6798e-26
4.00472e-24
-2.52546e-22
1.38601e-20
-6.29599e-19
2.09695e-17
-2.76455e-16
-2.2828e-14
2.40682e-12
-2.84198e-10
1.24198e-07
1.09845e-05
0.000363036
0.00932412
-1.51358e-36
1.7976e-34
-1.99999e-32
2.11404e-30
-2.11639e-28
1.99943e-26
-1.77504e-24
1.47346e-22
-1.13693e-20
8.09703e-19
-5.27737e-17
3.11523e-15
-1.64421e-13
7.63577e-12
-3.05852e-10
1.03158e-08
-2.8557e-07
6.55819e-06
-9.08597e-05
0.0022692
-3.24747e-36
4.01744e-34
-4.6572e-32
5.12578e-30
-5.33651e-28
5.23164e-26
-4.8023e-24
4.09871e-22
-3.22437e-20
2.31275e-18
-1.49229e-16
8.51965e-15
-4.21787e-13
1.76793e-11
-6.10254e-10
1.68195e-08
-3.58027e-07
5.67782e-06
-6.37145e-05
0.000485175
-2.2328e-36
2.86077e-34
-3.43444e-32
3.91106e-30
-4.20696e-28
4.25153e-26
-4.00924e-24
3.4977e-22
-2.79268e-20
2.01342e-18
-1.28923e-16
7.18579e-15
-3.40392e-13
1.33279e-11
-4.17923e-10
1.01298e-08
-1.82328e-07
2.31977e-06
-1.93138e-05
8.52867e-05
-6.37971e-37
8.41878e-35
-1.04117e-32
1.22083e-30
-1.35105e-28
1.40278e-26
-1.35614e-24
1.209e-22
-9.81952e-21
7.1575e-19
-4.59671e-17
2.5442e-15
-1.18247e-13
4.47875e-12
-1.33613e-10
3.0196e-09
-4.935e-08
5.4824e-07
-3.72996e-06
1.16336e-05
-8.15254e-38
1.09565e-35
-1.38029e-33
1.64844e-31
-1.85745e-29
1.96248e-27
-1.92868e-25
1.74531e-23
-1.43579e-21
1.05694e-19
-6.82953e-18
3.78548e-16
-1.7521e-14
6.56565e-13
-1.92292e-11
4.22515e-10
-6.6227e-09
6.89907e-08
-4.20853e-07
1.0447e-06
)
;

boundaryField
{
    x0
    {
        type            fixedValue;
        value           uniform 0;
    }
    x1
    {
        type            inletOutlet;
        inletValue      uniform 0.0357;
        value           nonuniform List<scalar> 10(0.0357 0.0357 0.0357 0.0357 0.0357 0.0022692 0.000485175 8.52867e-05 1.16336e-05 1.0447e-06);
    }
    y0
    {
        type            zeroGradient;
    }
    y1
    {
        type            zeroGradient;
    }
    z0
    {
        type            empty;
    }
    z1
    {
        type            empty;
    }
}


// ************************************************************************* //
