/*--------------------------------*- C++ -*----------------------------------*\
  =========                 |
  \\      /  F ield         | OpenFOAM: The Open Source CFD Toolbox
   \\    /   O peration     | Website:  https://openfoam.org
    \\  /    A nd           | Version:  7
     \\/     M anipulation  |
\*---------------------------------------------------------------------------*/
FoamFile
{
    version     2.0;
    format      ascii;
    class       surfaceScalarField;
    location    "570000";
    object      phi;
}
// * * * * * * * * * * * * * * * * * * * * * * * * * * * * * * * * * * * * * //

dimensions      [0 3 -1 0 0 0 0];

internalField   nonuniform List<scalar> 
370
(
6.56039e-06
3.96057e-08
6.5169e-06
4.34934e-08
6.46525e-06
5.16539e-08
6.40035e-06
6.48968e-08
6.31581e-06
8.45404e-08
6.20326e-06
1.12551e-07
6.0515e-06
1.51756e-07
5.84534e-06
2.06164e-07
5.56389e-06
2.81452e-07
5.17816e-06
3.85726e-07
4.64738e-06
5.30785e-07
3.91297e-06
7.3441e-07
2.888e-06
1.02496e-06
1.43613e-06
1.45187e-06
-6.76373e-07
2.1125e-06
-3.89145e-06
3.21508e-06
-8.91603e-06
5.02458e-06
-1.54731e-05
6.55707e-06
-1.94852e-05
4.01208e-06
-1.69703e-06
6.56428e-06
7.53236e-08
6.52506e-06
8.27141e-08
6.47849e-06
9.82255e-08
6.41999e-06
1.23393e-07
6.34382e-06
1.60714e-07
6.24246e-06
2.13907e-07
6.10591e-06
2.88308e-07
5.92063e-06
3.91448e-07
5.66816e-06
5.33919e-07
5.32322e-06
7.30667e-07
4.851e-06
1.003e-06
4.20352e-06
1.38189e-06
3.31491e-06
1.91357e-06
2.0971e-06
2.66968e-06
4.43953e-07
3.76566e-06
-1.72782e-06
5.38685e-06
-4.43319e-06
7.72994e-06
-8.03847e-06
1.01624e-05
-1.29208e-05
8.89441e-06
9.47528e-07
6.57167e-06
1.03651e-07
6.54057e-06
1.13814e-07
6.50366e-06
1.35141e-07
6.45731e-06
1.69736e-07
6.39701e-06
2.21015e-07
6.31686e-06
2.94057e-07
6.20905e-06
3.9612e-07
6.0631e-06
5.37401e-07
5.86491e-06
7.32109e-07
5.59556e-06
1.00002e-06
5.22989e-06
1.36868e-06
4.73519e-06
1.87659e-06
4.07103e-06
2.57773e-06
3.19313e-06
3.54759e-06
2.06901e-06
4.88978e-06
7.18721e-07
6.73714e-06
-7.65652e-07
9.21432e-06
-2.71795e-06
1.21147e-05
-6.90901e-06
1.30855e-05
5.2981e-06
6.58184e-06
1.21816e-07
6.5619e-06
1.33749e-07
6.53825e-06
1.58789e-07
6.50859e-06
1.99394e-07
6.47006e-06
2.59553e-07
6.41893e-06
3.45184e-07
6.35033e-06
4.64716e-07
6.25781e-06
6.29926e-07
6.13282e-06
8.57099e-07
5.96422e-06
1.16862e-06
5.7378e-06
1.59509e-06
5.43633e-06
2.17805e-06
5.04089e-06
2.97317e-06
4.53532e-06
4.05315e-06
3.91678e-06
5.50832e-06
3.21465e-06
7.43927e-06
2.49806e-06
9.9309e-06
1.65152e-06
1.29612e-05
-9.35819e-07
1.56728e-05
1.13215e-05
6.59377e-06
1.28046e-07
6.58694e-06
1.40579e-07
6.57886e-06
1.66872e-07
6.56875e-06
2.09496e-07
6.55569e-06
2.7262e-07
6.53846e-06
3.62411e-07
6.51554e-06
4.87635e-07
6.48498e-06
6.60486e-07
6.44434e-06
8.97741e-07
6.39069e-06
1.22227e-06
6.32076e-06
1.66502e-06
6.23144e-06
2.26737e-06
6.12088e-06
3.08373e-06
5.99049e-06
4.18355e-06
5.84775e-06
5.65106e-06
5.70786e-06
7.57915e-06
5.58679e-06
1.0052e-05
5.44398e-06
1.3104e-05
4.48406e-06
1.66327e-05
1.72518e-05
6.6063e-06
1.21743e-07
6.61323e-06
1.3365e-07
6.62148e-06
1.58624e-07
6.63188e-06
1.991e-07
6.64548e-06
2.59019e-07
6.66368e-06
3.44207e-07
6.68839e-06
4.62925e-07
6.72223e-06
6.26645e-07
6.76887e-06
8.51105e-07
6.83344e-06
1.15771e-06
6.92311e-06
1.57535e-06
7.0478e-06
2.14268e-06
7.2207e-06
2.91083e-06
7.458e-06
3.94625e-06
7.77585e-06
5.3332e-06
8.18062e-06
7.17438e-06
8.64504e-06
9.58756e-06
9.06181e-06
1.26872e-05
9.06554e-06
1.6629e-05
2.04024e-05
6.61821e-06
1.03534e-07
6.63821e-06
1.13653e-07
6.66196e-06
1.34874e-07
6.6918e-06
1.6926e-07
6.73067e-06
2.20149e-07
6.7824e-06
2.92472e-07
6.85211e-06
3.93212e-07
6.94669e-06
5.32065e-07
7.07547e-06
7.22325e-07
7.25107e-06
9.82108e-07
7.49044e-06
1.33598e-06
7.81595e-06
1.81717e-06
8.25613e-06
2.47065e-06
8.84495e-06
3.35744e-06
9.61703e-06
4.56112e-06
1.05936e-05
6.19784e-06
1.17492e-05
8.4319e-06
1.29452e-05
1.14913e-05
1.38571e-05
1.57171e-05
2.10974e-05
6.62833e-06
7.52068e-08
6.65943e-06
8.25528e-08
6.69634e-06
9.79579e-08
6.74269e-06
1.22917e-07
6.80299e-06
1.59847e-07
6.88314e-06
2.12318e-07
6.99097e-06
2.85388e-07
7.13695e-06
3.86076e-07
7.33526e-06
5.24025e-07
7.60494e-06
7.1242e-07
7.97164e-06
9.69284e-07
8.46943e-06
1.31938e-06
9.14292e-06
1.79715e-06
1.00486e-05
2.45174e-06
1.12538e-05
3.35598e-06
1.28274e-05
4.62417e-06
1.48116e-05
6.44772e-06
1.71391e-05
9.1638e-06
1.94661e-05
1.33901e-05
2.00153e-05
6.63567e-06
3.95335e-08
6.67483e-06
4.33937e-08
6.7213e-06
5.14885e-08
6.77962e-06
6.46023e-08
6.85546e-06
8.40041e-08
6.95621e-06
1.11567e-07
7.09165e-06
1.49945e-07
7.2749e-06
2.02825e-07
7.52365e-06
2.75279e-07
7.86181e-06
3.74265e-07
8.32173e-06
5.09362e-07
8.94721e-06
6.93899e-07
9.7975e-06
9.46856e-07
1.09529e-05
1.29637e-06
1.2522e-05
1.7869e-06
1.46509e-05
2.49523e-06
1.75288e-05
3.56986e-06
2.13563e-05
5.33623e-06
2.61333e-05
8.61316e-06
1.57188e-05
6.63953e-06
6.68293e-06
6.73442e-06
6.79902e-06
6.88302e-06
6.99459e-06
7.14453e-06
7.34736e-06
7.62264e-06
7.9969e-06
8.50626e-06
9.20016e-06
1.0147e-05
1.14434e-05
1.32303e-05
1.57255e-05
1.92954e-05
2.46316e-05
3.32448e-05
)
;

boundaryField
{
    x0
    {
        type            calculated;
        value           nonuniform List<scalar> 10(-6.6e-06 -6.6e-06 -6.6e-06 -6.6e-06 -6.6e-06 -6.6e-06 -6.6e-06 -6.6e-06 -6.6e-06 -6.6e-06);
    }
    x1
    {
        type            calculated;
        value           nonuniform List<scalar> 10(-1.77881e-05 -1.55654e-05 -1.12596e-05 -6.9592e-06 -1.44625e-06 5.91492e-06 1.31621e-05 2.05482e-05 3.04298e-05 4.89635e-05);
    }
    y0
    {
        type            calculated;
        value           uniform 0;
    }
    y1
    {
        type            calculated;
        value           uniform 0;
    }
    z0
    {
        type            empty;
        value           nonuniform 0();
    }
    z1
    {
        type            empty;
        value           nonuniform 0();
    }
}


// ************************************************************************* //
