/*--------------------------------*- C++ -*----------------------------------*\
  =========                 |
  \\      /  F ield         | OpenFOAM: The Open Source CFD Toolbox
   \\    /   O peration     | Website:  https://openfoam.org
    \\  /    A nd           | Version:  7
     \\/     M anipulation  |
\*---------------------------------------------------------------------------*/
FoamFile
{
    version     2.0;
    format      ascii;
    class       volVectorField;
    location    "570000";
    object      Utheta;
}
// * * * * * * * * * * * * * * * * * * * * * * * * * * * * * * * * * * * * * //

dimensions      [0 1 -1 0 0 0 0];

internalField   nonuniform List<vector> 
200
(
(6.5802e-05 3.96057e-07 0)
(6.53865e-05 4.34934e-07 0)
(6.49107e-05 5.16539e-07 0)
(6.4328e-05 6.48968e-07 0)
(6.35808e-05 8.45404e-07 0)
(6.25953e-05 1.12551e-06 0)
(6.12738e-05 1.51756e-06 0)
(5.94842e-05 2.06164e-06 0)
(5.70461e-05 2.81452e-06 0)
(5.37102e-05 3.85726e-06 0)
(4.91277e-05 5.30785e-06 0)
(4.28017e-05 7.3441e-06 0)
(3.40048e-05 1.02496e-05 0)
(2.16207e-05 1.45187e-05 0)
(3.79878e-06 2.1125e-05 0)
(-2.28391e-05 3.21508e-05 0)
(-6.40374e-05 5.02458e-05 0)
(-0.000121946 6.55707e-05 0)
(-0.000174791 4.01208e-05 0)
(-0.000186367 -1.69703e-05 0)
(6.58214e-05 5.74646e-07 0)
(6.54467e-05 6.31038e-07 0)
(6.50178e-05 7.49397e-07 0)
(6.44924e-05 9.41449e-07 0)
(6.38191e-05 1.22627e-06 0)
(6.29314e-05 1.63229e-06 0)
(6.17419e-05 2.20032e-06 0)
(6.01327e-05 2.98806e-06 0)
(5.79439e-05 4.07686e-06 0)
(5.49569e-05 5.58197e-06 0)
(5.08711e-05 7.66895e-06 0)
(4.52726e-05 1.05815e-05 0)
(3.75922e-05 1.46926e-05 0)
(2.70601e-05 2.06078e-05 0)
(1.27053e-05 2.93908e-05 0)
(-6.41934e-06 4.30096e-05 0)
(-3.0805e-05 6.37726e-05 0)
(-6.23583e-05 8.35971e-05 0)
(-0.000104796 6.45324e-05 0)
(-0.000142431 -3.74753e-06 0)
(6.58584e-05 8.94873e-07 0)
(6.55612e-05 9.8264e-07 0)
(6.52212e-05 1.16683e-06 0)
(6.48049e-05 1.46564e-06 0)
(6.42716e-05 1.90864e-06 0)
(6.35694e-05 2.53982e-06 0)
(6.26296e-05 3.42214e-06 0)
(6.13608e-05 4.64424e-06 0)
(5.964e-05 6.33014e-06 0)
(5.73023e-05 8.65343e-06 0)
(5.41272e-05 1.18584e-05 0)
(4.98254e-05 1.62924e-05 0)
(4.40311e-05 2.24565e-05 0)
(3.63208e-05 3.10863e-05 0)
(2.63107e-05 4.32772e-05 0)
(1.39386e-05 6.06199e-05 0)
(-2.34654e-07 8.47213e-05 0)
(-1.7418e-05 0.000111385 0)
(-4.81348e-05 0.000109899 0)
(-9.08429e-05 3.12281e-05 0)
(6.59092e-05 1.12733e-06 0)
(6.57187e-05 1.23782e-06 0)
(6.55008e-05 1.46965e-06 0)
(6.52342e-05 1.84565e-06 0)
(6.48932e-05 2.40284e-06 0)
(6.44449e-05 3.19621e-06 0)
(6.38463e-05 4.30418e-06 0)
(6.30407e-05 5.83663e-06 0)
(6.19531e-05 7.94604e-06 0)
(6.04852e-05 1.08432e-05 0)
(5.85101e-05 1.48188e-05 0)
(5.58706e-05 2.02732e-05 0)
(5.23861e-05 2.77545e-05 0)
(4.78811e-05 3.80037e-05 0)
(4.22605e-05 5.19905e-05 0)
(3.56572e-05 7.0882e-05 0)
(2.85636e-05 9.57261e-05 0)
(2.07479e-05 0.000125379 0)
(3.57848e-06 0.000143791 0)
(-3.94751e-05 8.30979e-05 0)
(6.59688e-05 1.24931e-06 0)
(6.59035e-05 1.37164e-06 0)
(6.5829e-05 1.62831e-06 0)
(6.5738e-05 2.04445e-06 0)
(6.56222e-05 2.66087e-06 0)
(6.54707e-05 3.53798e-06 0)
(6.527e-05 4.76176e-06 0)
(6.50026e-05 6.45206e-06 0)
(6.46466e-05 8.7742e-06 0)
(6.41751e-05 1.19545e-05 0)
(6.35572e-05 1.63006e-05 0)
(6.2761e-05 2.22271e-05 0)
(6.17616e-05 3.02845e-05 0)
(6.05568e-05 4.11835e-05 0)
(5.91912e-05 5.57969e-05 0)
(5.77781e-05 7.50921e-05 0)
(5.64733e-05 9.99144e-05 0)
(5.51539e-05 0.000130326 0)
(4.96402e-05 0.000161528 0)
(1.5189e-05 0.000142866 0)
(6.60315e-05 1.24895e-06 0)
(6.60977e-05 1.37115e-06 0)
(6.61736e-05 1.62748e-06 0)
(6.62668e-05 2.04298e-06 0)
(6.63868e-05 2.65819e-06 0)
(6.65458e-05 3.53309e-06 0)
(6.67604e-05 4.7528e-06 0)
(6.70531e-05 6.43566e-06 0)
(6.74555e-05 8.74423e-06 0)
(6.80115e-05 1.18999e-05 0)
(6.87827e-05 1.62018e-05 0)
(6.98546e-05 2.20502e-05 0)
(7.13425e-05 2.99728e-05 0)
(7.33935e-05 4.0649e-05 0)
(7.61692e-05 5.49213e-05 0)
(7.97823e-05 7.37677e-05 0)
(8.41283e-05 9.81977e-05 0)
(8.85342e-05 0.000128956 0)
(9.06367e-05 0.000166309 0)
(7.49023e-05 0.000188271 0)
(6.6091e-05 1.12639e-06 0)
(6.62821e-05 1.23651e-06 0)
(6.65008e-05 1.46749e-06 0)
(6.67688e-05 1.8418e-06 0)
(6.71123e-05 2.39584e-06 0)
(6.75653e-05 3.18339e-06 0)
(6.81726e-05 4.28068e-06 0)
(6.8994e-05 5.79355e-06 0)
(7.01108e-05 7.86715e-06 0)
(7.16327e-05 1.06991e-05 0)
(7.37076e-05 1.45566e-05 0)
(7.6532e-05 1.97992e-05 0)
(8.03604e-05 2.69074e-05 0)
(8.55054e-05 3.65185e-05 0)
(9.23099e-05 4.94716e-05 0)
(0.000101053 6.68611e-05 0)
(0.000111714 9.00973e-05 0)
(0.000123472 0.000120893 0)
(0.000134011 0.00016173 0)
(0.000135096 0.000207499 0)
(6.61416e-05 8.93706e-07 0)
(6.64388e-05 9.81027e-07 0)
(6.67789e-05 1.16416e-06 0)
(6.71951e-05 1.46088e-06 0)
(6.77284e-05 1.89998e-06 0)
(6.84306e-05 2.52395e-06 0)
(6.93705e-05 3.393e-06 0)
(7.06396e-05 4.5907e-06 0)
(7.23611e-05 6.23175e-06 0)
(7.4701e-05 8.47264e-06 0)
(7.78829e-05 1.15263e-05 0)
(8.22053e-05 1.56827e-05 0)
(8.80617e-05 2.1339e-05 0)
(9.59577e-05 2.90459e-05 0)
(0.000106512 3.95855e-05 0)
(0.000120406 5.41101e-05 0)
(0.000138195 7.43981e-05 0)
(0.000159754 0.000103275 0)
(0.000183026 0.000145536 0)
(0.000200071 0.000205563 0)
(6.61784e-05 5.73702e-07 0)
(6.65525e-05 6.29732e-07 0)
(6.69807e-05 7.47232e-07 0)
(6.75046e-05 9.37596e-07 0)
(6.81754e-05 1.21926e-06 0)
(6.90584e-05 1.61943e-06 0)
(7.02393e-05 2.17666e-06 0)
(7.18328e-05 2.9445e-06 0)
(7.39928e-05 3.99652e-06 0)
(7.69273e-05 5.43343e-06 0)
(8.09177e-05 7.39323e-06 0)
(8.63447e-05 1.00664e-05 0)
(9.37235e-05 1.37201e-05 0)
(0.000103752 1.87405e-05 0)
(0.000117374 2.57144e-05 0)
(0.000135864 3.5597e-05 0)
(0.000160898 5.00879e-05 0)
(0.000194426 7.25001e-05 0)
(0.000237448 0.000110016 0)
(0.000282815 0.00017867 0)
(6.61977e-05 3.95335e-07 0)
(6.66123e-05 4.33937e-07 0)
(6.70867e-05 5.14885e-07 0)
(6.76672e-05 6.46023e-07 0)
(6.84102e-05 8.40041e-07 0)
(6.93881e-05 1.11567e-06 0)
(7.06956e-05 1.49945e-06 0)
(7.24595e-05 2.02825e-06 0)
(7.485e-05 2.75279e-06 0)
(7.80977e-05 3.74265e-06 0)
(8.25158e-05 5.09362e-06 0)
(8.85321e-05 6.93899e-06 0)
(9.67359e-05 9.46856e-06 0)
(0.000107952 1.29637e-05 0)
(0.000123368 1.7869e-05 0)
(0.000144779 2.49523e-05 0)
(0.000175104 3.56986e-05 0)
(0.000219635 5.33623e-05 0)
(0.000289382 8.61316e-05 0)
(0.000411041 0.000157188 0)
)
;

boundaryField
{
    x0
    {
        type            fixedValue;
        value           uniform (6.6e-05 0 0);
    }
    x1
    {
        type            zeroGradient;
    }
    y0
    {
        type            zeroGradient;
    }
    y1
    {
        type            zeroGradient;
    }
    z0
    {
        type            empty;
    }
    z1
    {
        type            empty;
    }
}


// ************************************************************************* //
