/*--------------------------------*- C++ -*----------------------------------*\
  =========                 |
  \\      /  F ield         | OpenFOAM: The Open Source CFD Toolbox
   \\    /   O peration     | Website:  https://openfoam.org
    \\  /    A nd           | Version:  7
     \\/     M anipulation  |
\*---------------------------------------------------------------------------*/
FoamFile
{
    version     2.0;
    format      ascii;
    class       volScalarField;
    location    "510000";
    object      C;
}
// * * * * * * * * * * * * * * * * * * * * * * * * * * * * * * * * * * * * * //

dimensions      [0 0 0 0 0 0 0];

internalField   nonuniform List<scalar> 
200
(
-2.10882e-36
2.57913e-34
-2.98017e-32
3.30501e-30
-3.51917e-28
3.60431e-26
-3.56445e-24
3.42758e-22
-3.24371e-20
3.08412e-18
-3.05616e-16
3.38703e-14
-4.93483e-12
1.73107e-09
4.23062e-07
2.40475e-05
0.00053529
0.00506222
0.0205197
0.038072
-2.13545e-37
2.63965e-35
-3.08444e-33
3.46014e-31
-3.72705e-29
3.85992e-27
-3.85536e-25
3.73489e-23
-3.54348e-21
3.34687e-19
-3.23725e-17
3.37665e-15
-4.22778e-13
8.58188e-11
7.13877e-08
5.67069e-06
0.000165786
0.0021512
0.0125927
0.0329651
4.62888e-38
-5.84433e-36
6.97008e-34
-7.97012e-32
8.7361e-30
-9.18564e-28
9.28426e-26
-9.05803e-24
8.59312e-22
-8.02592e-20
7.53663e-18
-7.37901e-16
8.05692e-14
-1.1307e-11
3.09287e-09
6.23031e-07
3.1178e-05
0.000659592
0.00645681
0.0265996
1.40999e-39
-1.64369e-37
1.79012e-35
-1.84463e-33
1.78794e-31
-1.61542e-29
1.33865e-27
-9.82504e-26
5.78079e-24
-1.52851e-22
-2.81199e-20
7.44131e-18
-1.32493e-15
2.3137e-13
-4.92444e-11
1.97051e-08
2.51706e-06
0.000105529
0.00220002
0.0199241
-7.90984e-39
9.81021e-37
-1.13358e-34
1.23492e-32
-1.26227e-30
1.20368e-28
-1.06339e-26
8.62924e-25
-6.36274e-23
4.20452e-21
-2.44697e-19
1.22932e-17
-5.25651e-16
1.95145e-14
-5.93571e-13
-5.41964e-11
5.80149e-08
6.61461e-06
0.000243751
0.00740903
-1.3418e-37
1.77828e-35
-2.21212e-33
2.61501e-31
-2.92863e-29
3.09624e-27
-3.0773e-25
2.86111e-23
-2.47397e-21
1.97564e-19
-1.44478e-17
9.57555e-16
-5.67825e-14
2.9646e-12
-1.3356e-10
5.06592e-09
-1.57399e-07
4.00777e-06
-6.32641e-05
0.00165428
-2.60218e-37
3.59072e-35
-4.65113e-33
5.7206e-31
-6.65647e-29
7.29455e-27
-7.48633e-25
7.14547e-23
-6.28813e-21
5.04733e-19
-3.64624e-17
2.33197e-15
-1.29422e-13
6.08624e-12
-2.35911e-10
7.30668e-09
-1.74789e-07
3.10968e-06
-3.89738e-05
0.000326148
-1.60796e-37
2.29795e-35
-3.0823e-33
3.92202e-31
-4.71443e-29
5.32486e-27
-5.61307e-25
5.47508e-23
-4.88893e-21
3.94333e-19
-2.82603e-17
1.76388e-15
-9.36248e-14
4.11062e-12
-1.44648e-10
3.93757e-09
-7.9642e-08
1.13864e-06
-1.06379e-05
5.26085e-05
-4.12519e-38
6.07246e-36
-8.39109e-34
1.09945e-31
-1.35975e-29
1.578e-27
-1.70539e-25
1.69998e-23
-1.54428e-21
1.25938e-19
-9.05278e-18
5.61093e-16
-2.9219e-14
1.24078e-12
-4.15298e-11
1.05384e-09
-1.93557e-08
2.41916e-07
-1.85486e-06
6.57066e-06
-4.70988e-39
7.06222e-37
-9.94257e-35
1.32711e-32
-1.67155e-30
1.97444e-28
-2.16984e-26
2.1962e-24
-2.02144e-22
1.66552e-20
-1.20507e-18
7.48315e-17
-3.88257e-15
1.63201e-13
-5.36568e-12
1.32474e-10
-2.33619e-09
2.74379e-08
-1.89523e-07
5.41955e-07
)
;

boundaryField
{
    x0
    {
        type            fixedValue;
        value           uniform 0;
    }
    x1
    {
        type            inletOutlet;
        inletValue      uniform 0.0357;
        value           nonuniform List<scalar> 10(0.0357 0.0357 0.0357 0.0357 0.0357 0.00165428 0.000326148 5.26085e-05 6.57066e-06 5.41955e-07);
    }
    y0
    {
        type            zeroGradient;
    }
    y1
    {
        type            zeroGradient;
    }
    z0
    {
        type            empty;
    }
    z1
    {
        type            empty;
    }
}


// ************************************************************************* //
