/*--------------------------------*- C++ -*----------------------------------*\
  =========                 |
  \\      /  F ield         | OpenFOAM: The Open Source CFD Toolbox
   \\    /   O peration     | Website:  https://openfoam.org
    \\  /    A nd           | Version:  7
     \\/     M anipulation  |
\*---------------------------------------------------------------------------*/
FoamFile
{
    version     2.0;
    format      ascii;
    class       volScalarField;
    location    "510000";
    object      C_0;
}
// * * * * * * * * * * * * * * * * * * * * * * * * * * * * * * * * * * * * * //

dimensions      [0 0 0 0 0 0 0];

internalField   nonuniform List<scalar> 
200
(
-2.10391e-36
2.57343e-34
-2.97392e-32
3.29847e-30
-3.51261e-28
3.59802e-26
-3.55864e-24
3.4224e-22
-3.23918e-20
3.08016e-18
-3.05259e-16
3.38344e-14
-4.93012e-12
1.72952e-09
4.22756e-07
2.40335e-05
0.000535056
0.00506078
0.0205169
0.0380711
-2.13023e-37
2.6335e-35
-3.0776e-33
3.45286e-31
-3.71965e-29
3.8527e-27
-3.84858e-25
3.72875e-23
-3.53806e-21
3.34213e-19
-3.23302e-17
3.3726e-15
-4.22314e-13
8.57322e-11
7.13344e-08
5.66727e-06
0.00016571
0.00215051
0.0125905
0.0329636
4.61801e-38
-5.83127e-36
6.9553e-34
-7.95413e-32
8.71958e-30
-9.16931e-28
9.26882e-26
-9.044e-24
8.58078e-22
-8.0153e-20
7.52749e-18
-7.37086e-16
8.04886e-14
-1.12968e-11
3.0903e-09
6.22624e-07
3.11621e-05
0.000659349
0.00645539
0.0265978
1.40644e-39
-1.63969e-37
1.78592e-35
-1.84045e-33
1.78402e-31
-1.61196e-29
1.33581e-27
-9.80372e-26
5.76673e-24
-1.52131e-22
-2.81301e-20
7.43672e-18
-1.32388e-15
2.31181e-13
-4.9205e-11
1.96899e-08
2.51556e-06
0.000105482
0.00219938
0.019922
-7.88978e-39
9.78651e-37
-1.13098e-34
1.23224e-32
-1.25969e-30
1.20138e-28
-1.06151e-26
8.61519e-25
-6.35339e-23
4.1991e-21
-2.44436e-19
1.22838e-17
-5.25499e-16
1.9524e-14
-5.94754e-13
-5.4064e-11
5.79673e-08
6.61105e-06
0.000243649
0.00740711
-1.33836e-37
1.77393e-35
-2.20697e-33
2.60923e-31
-2.9225e-29
3.09012e-27
-3.07159e-25
2.85614e-23
-2.46997e-21
1.97269e-19
-1.44279e-17
9.56355e-16
-5.67183e-14
2.96162e-12
-1.33442e-10
5.06208e-09
-1.57299e-07
4.00567e-06
-6.32396e-05
0.00165372
-2.59523e-37
3.58155e-35
-4.63979e-33
5.70732e-31
-6.6418e-29
7.27933e-27
-7.47159e-25
7.13225e-23
-6.27724e-21
5.03919e-19
-3.64079e-17
2.32876e-15
-1.29259e-13
6.07935e-12
-2.35673e-10
7.3002e-09
-1.74656e-07
3.10769e-06
-3.89534e-05
0.000326009
-1.60348e-37
2.29181e-35
-3.07443e-33
3.91248e-31
-4.70351e-29
5.31315e-27
-5.60138e-25
5.46432e-23
-4.87991e-21
3.93651e-19
-2.82149e-17
1.76125e-15
-9.34966e-14
4.10548e-12
-1.44485e-10
3.93361e-09
-7.95717e-08
1.13778e-06
-1.06312e-05
5.25814e-05
-4.11323e-38
6.05557e-36
-8.36873e-34
1.09665e-31
-1.35645e-29
1.57435e-27
-1.70165e-25
1.69645e-23
-1.54125e-21
1.25706e-19
-9.03719e-18
5.60194e-16
-2.91757e-14
1.23909e-12
-4.14783e-11
1.05266e-09
-1.93364e-08
2.41705e-07
-1.85348e-06
6.56664e-06
-4.69568e-39
7.04174e-37
-9.91489e-35
1.32358e-32
-1.66729e-30
1.96964e-28
-2.16482e-26
2.19138e-24
-2.01724e-22
1.66226e-20
-1.20285e-18
7.47029e-17
-3.87636e-15
1.6296e-13
-5.35841e-12
1.32311e-10
-2.3336e-09
2.74109e-08
-1.89362e-07
5.41574e-07
)
;

boundaryField
{
    x0
    {
        type            fixedValue;
        value           uniform 0;
    }
    x1
    {
        type            inletOutlet;
        inletValue      uniform 0.0357;
        value           nonuniform List<scalar> 10(0.0357 0.0357 0.0357 0.0357 0.0357 0.00165372 0.000326009 5.25814e-05 6.56664e-06 5.41574e-07);
    }
    y0
    {
        type            zeroGradient;
    }
    y1
    {
        type            zeroGradient;
    }
    z0
    {
        type            empty;
    }
    z1
    {
        type            empty;
    }
}


// ************************************************************************* //
