/*--------------------------------*- C++ -*----------------------------------*\
  =========                 |
  \\      /  F ield         | OpenFOAM: The Open Source CFD Toolbox
   \\    /   O peration     | Website:  https://openfoam.org
    \\  /    A nd           | Version:  7
     \\/     M anipulation  |
\*---------------------------------------------------------------------------*/
FoamFile
{
    version     2.0;
    format      ascii;
    class       surfaceScalarField;
    location    "510000";
    object      phi;
}
// * * * * * * * * * * * * * * * * * * * * * * * * * * * * * * * * * * * * * //

dimensions      [0 3 -1 0 0 0 0];

internalField   nonuniform List<scalar> 
370
(
6.56058e-06
3.94244e-08
6.51728e-06
4.32929e-08
6.46587e-06
5.14124e-08
6.40128e-06
6.45871e-08
6.31716e-06
8.41257e-08
6.20518e-06
1.11978e-07
6.05423e-06
1.50946e-07
5.84924e-06
2.04993e-07
5.56952e-06
2.79717e-07
5.18644e-06
3.83078e-07
4.65985e-06
5.26593e-07
3.93239e-06
7.27457e-07
2.91968e-06
1.01272e-06
1.49108e-06
1.42859e-06
-5.72806e-07
2.06389e-06
-3.68089e-06
3.10808e-06
-8.53791e-06
4.85702e-06
-1.5221e-05
6.68309e-06
-2.00705e-05
4.84951e-06
-1.27177e-06
6.56444e-06
7.49803e-08
6.5254e-06
8.23348e-08
6.47904e-06
9.77697e-08
6.42082e-06
1.2281e-07
6.34501e-06
1.59937e-07
6.24415e-06
2.12842e-07
6.10828e-06
2.86813e-07
5.92396e-06
3.89309e-07
5.67288e-06
5.30797e-07
5.32996e-06
7.26001e-07
4.86072e-06
9.95838e-07
4.21766e-06
1.37052e-06
3.33555e-06
1.89483e-06
2.12655e-06
2.63759e-06
4.8161e-07
3.70883e-06
-1.69708e-06
5.28677e-06
-4.43316e-06
7.5931e-06
-7.99095e-06
1.02409e-05
-1.29172e-05
9.77575e-06
1.81053e-06
6.5718e-06
1.03182e-07
6.54084e-06
1.13296e-07
6.50409e-06
1.34521e-07
6.45795e-06
1.68947e-07
6.39791e-06
2.19971e-07
6.31812e-06
2.92638e-07
6.21078e-06
3.94154e-07
6.06545e-06
5.34635e-07
5.86809e-06
7.2816e-07
5.5998e-06
9.94293e-07
5.23539e-06
1.36024e-06
4.74197e-06
1.86394e-06
4.07831e-06
2.55849e-06
3.19783e-06
3.51807e-06
2.06172e-06
4.84494e-06
6.75956e-07
6.67254e-06
-8.70838e-07
9.1399e-06
-2.77346e-06
1.21435e-05
-6.70193e-06
1.37042e-05
6.44213e-06
6.58191e-06
1.21269e-07
6.56206e-06
1.33148e-07
6.53851e-06
1.58071e-07
6.50897e-06
1.98487e-07
6.47058e-06
2.58363e-07
6.41963e-06
3.43584e-07
6.35126e-06
4.62533e-07
6.25898e-06
6.26915e-07
6.13422e-06
8.52915e-07
5.96574e-06
1.16277e-06
5.7391e-06
1.58688e-06
5.43651e-06
2.16653e-06
5.03789e-06
2.9571e-06
4.52469e-06
4.03127e-06
3.88955e-06
5.48008e-06
3.15487e-06
7.40722e-06
2.38867e-06
9.90611e-06
1.54874e-06
1.29834e-05
-7.11204e-07
1.59642e-05
1.25326e-05
6.59379e-06
1.27476e-07
6.58699e-06
1.39954e-07
6.57893e-06
1.6613e-07
6.56885e-06
2.08565e-07
6.5558e-06
2.71409e-07
6.53858e-06
3.60804e-07
6.51564e-06
4.85477e-07
6.48498e-06
6.57576e-07
6.44408e-06
8.93814e-07
6.38986e-06
1.217e-06
6.31874e-06
1.658e-06
6.22708e-06
2.25819e-06
6.11206e-06
3.07213e-06
5.97351e-06
4.16982e-06
5.8167e-06
5.63689e-06
5.65466e-06
7.56926e-06
5.50431e-06
1.00565e-05
5.34532e-06
1.31424e-05
4.5674e-06
1.67421e-05
1.81173e-05
6.60627e-06
1.21207e-07
6.61316e-06
1.33062e-07
6.62136e-06
1.5793e-07
6.63169e-06
1.98235e-07
6.6452e-06
2.57904e-07
6.66326e-06
3.42745e-07
6.68774e-06
4.60995e-07
6.72122e-06
6.24099e-07
6.76726e-06
8.47769e-07
6.83086e-06
1.1534e-06
6.91894e-06
1.56992e-06
7.04102e-06
2.1361e-06
7.20974e-06
2.90341e-06
7.44057e-06
3.93899e-06
7.74907e-06
5.32839e-06
8.14182e-06
7.17651e-06
8.59402e-06
9.60425e-06
9.00441e-06
1.2732e-05
9.05075e-06
1.66957e-05
2.07823e-05
6.61813e-06
1.03082e-07
6.63803e-06
1.13158e-07
6.66167e-06
1.34292e-07
6.69136e-06
1.68539e-07
6.73004e-06
2.19229e-07
6.78151e-06
2.91278e-07
6.85084e-06
3.91659e-07
6.94489e-06
5.30055e-07
7.07289e-06
7.19763e-07
7.24737e-06
9.78918e-07
7.48513e-06
1.33216e-06
7.80833e-06
1.8129e-06
8.24532e-06
2.46642e-06
8.82997e-06
3.35434e-06
9.59721e-06
4.56115e-06
1.05694e-05
6.20428e-06
1.17244e-05
8.44931e-06
1.29299e-05
1.15265e-05
1.3866e-05
1.57596e-05
2.12331e-05
6.6282e-06
7.48801e-08
6.65916e-06
8.21964e-08
6.69591e-06
9.75401e-08
6.74205e-06
1.22402e-07
6.80209e-06
1.59194e-07
6.88189e-06
2.11478e-07
6.98924e-06
2.84307e-07
7.13459e-06
3.847e-07
7.33205e-06
5.22308e-07
7.60062e-06
7.10349e-07
7.96586e-06
9.66916e-07
8.46185e-06
1.31691e-06
9.13324e-06
1.79504e-06
1.00368e-05
2.4508e-06
1.12403e-05
3.35758e-06
1.28144e-05
4.63026e-06
1.48032e-05
6.46051e-06
1.71441e-05
9.18555e-06
1.94894e-05
1.34143e-05
2.00584e-05
6.63552e-06
3.93625e-08
6.67451e-06
4.32073e-08
6.72078e-06
5.12705e-08
6.77884e-06
6.43344e-08
6.85437e-06
8.36655e-08
6.95472e-06
1.11134e-07
7.08963e-06
1.49393e-07
7.2722e-06
2.02129e-07
7.52009e-06
2.74422e-07
7.85718e-06
3.73253e-07
8.31586e-06
5.0824e-07
8.93998e-06
6.92792e-07
9.789e-06
9.46016e-07
1.09436e-05
1.29624e-06
1.2513e-05
1.78813e-06
1.46446e-05
2.49869e-06
1.75287e-05
3.57638e-06
2.1368e-05
5.34622e-06
2.61585e-05
8.62384e-06
1.57308e-05
6.63936e-06
6.68257e-06
6.73384e-06
6.79817e-06
6.88184e-06
6.99297e-06
7.14237e-06
7.3445e-06
7.61892e-06
7.99217e-06
8.50041e-06
9.1932e-06
1.01392e-05
1.14355e-05
1.32236e-05
1.57223e-05
1.92987e-05
2.46449e-05
3.32687e-05
)
;

boundaryField
{
    x0
    {
        type            calculated;
        value           nonuniform List<scalar> 10(-6.6e-06 -6.6e-06 -6.6e-06 -6.6e-06 -6.6e-06 -6.6e-06 -6.6e-06 -6.6e-06 -6.6e-06 -6.6e-06);
    }
    x1
    {
        type            calculated;
        value           nonuniform List<scalar> 10(-1.87987e-05 -1.59995e-05 -1.13335e-05 -6.80168e-06 -1.01726e-06 6.38568e-06 1.34153e-05 2.06641e-05 3.04861e-05 4.89995e-05);
    }
    y0
    {
        type            calculated;
        value           uniform 0;
    }
    y1
    {
        type            calculated;
        value           uniform 0;
    }
    z0
    {
        type            empty;
        value           nonuniform 0();
    }
    z1
    {
        type            empty;
        value           nonuniform 0();
    }
}


// ************************************************************************* //
