/*--------------------------------*- C++ -*----------------------------------*\
  =========                 |
  \\      /  F ield         | OpenFOAM: The Open Source CFD Toolbox
   \\    /   O peration     | Website:  https://openfoam.org
    \\  /    A nd           | Version:  7
     \\/     M anipulation  |
\*---------------------------------------------------------------------------*/
FoamFile
{
    version     2.0;
    format      ascii;
    class       volVectorField;
    location    "510000";
    object      Utheta;
}
// * * * * * * * * * * * * * * * * * * * * * * * * * * * * * * * * * * * * * //

dimensions      [0 1 -1 0 0 0 0];

internalField   nonuniform List<vector> 
200
(
(6.58029e-05 3.94244e-07 0)
(6.53893e-05 4.32929e-07 0)
(6.49158e-05 5.14124e-07 0)
(6.43358e-05 6.45871e-07 0)
(6.35922e-05 8.41257e-07 0)
(6.26117e-05 1.11978e-06 0)
(6.12971e-05 1.50946e-06 0)
(5.95174e-05 2.04993e-06 0)
(5.70938e-05 2.79717e-06 0)
(5.37798e-05 3.83078e-06 0)
(4.92315e-05 5.26593e-06 0)
(4.29612e-05 7.27457e-06 0)
(3.42604e-05 1.01272e-05 0)
(2.20538e-05 1.42859e-05 0)
(4.59139e-06 2.06389e-05 0)
(-2.12685e-05 3.10808e-05 0)
(-6.1094e-05 4.85702e-05 0)
(-0.000118795 6.68309e-05 0)
(-0.000176458 4.84951e-05 0)
(-0.000194346 -1.27177e-05 0)
(6.58222e-05 5.72024e-07 0)
(6.54492e-05 6.28139e-07 0)
(6.50222e-05 7.45911e-07 0)
(6.44993e-05 9.36987e-07 0)
(6.38292e-05 1.22031e-06 0)
(6.29458e-05 1.6241e-06 0)
(6.17621e-05 2.18879e-06 0)
(6.01612e-05 2.97151e-06 0)
(5.79842e-05 4.05257e-06 0)
(5.50142e-05 5.5454e-06 0)
(5.09534e-05 7.61215e-06 0)
(4.53919e-05 1.04899e-05 0)
(3.7766e-05 1.45377e-05 0)
(2.73105e-05 2.03309e-05 0)
(1.30408e-05 2.88636e-05 0)
(-6.07734e-06 4.19743e-05 0)
(-3.06512e-05 6.22506e-05 0)
(-6.21205e-05 8.46198e-05 0)
(-0.000104541 7.31263e-05 0)
(-0.000144583 2.69378e-06 0)
(6.5859e-05 8.9081e-07 0)
(6.55632e-05 9.78156e-07 0)
(6.52246e-05 1.16145e-06 0)
(6.48102e-05 1.45879e-06 0)
(6.42793e-05 1.89954e-06 0)
(6.35802e-05 2.5274e-06 0)
(6.26445e-05 3.40484e-06 0)
(6.13811e-05 4.61972e-06 0)
(5.96677e-05 6.29479e-06 0)
(5.73394e-05 8.60147e-06 0)
(5.4176e-05 1.17804e-05 0)
(4.98868e-05 1.61723e-05 0)
(4.41014e-05 2.22666e-05 0)
(3.63807e-05 3.07783e-05 0)
(2.62978e-05 4.27688e-05 0)
(1.36884e-05 5.97966e-05 0)
(-9.74412e-07 8.3665e-05 0)
(-1.82215e-05 0.000111922 0)
(-4.7377e-05 0.0001174 0)
(-9.01773e-05 4.12633e-05 0)
(6.59096e-05 1.12225e-06 0)
(6.57199e-05 1.23222e-06 0)
(6.55029e-05 1.46296e-06 0)
(6.52374e-05 1.83717e-06 0)
(6.48978e-05 2.39167e-06 0)
(6.44511e-05 3.18111e-06 0)
(6.38545e-05 4.28343e-06 0)
(6.30512e-05 5.80775e-06 0)
(6.1966e-05 7.90538e-06 0)
(6.04998e-05 1.07853e-05 0)
(5.85242e-05 1.47356e-05 0)
(5.5878e-05 2.01524e-05 0)
(5.2372e-05 2.75779e-05 0)
(4.78129e-05 3.77467e-05 0)
(4.20712e-05 5.16251e-05 0)
(3.52221e-05 7.03988e-05 0)
(2.77177e-05 9.523e-05 0)
(1.9687e-05 0.000125635 0)
(4.1877e-06 0.000148342 0)
(-3.75644e-05 9.48737e-05 0)
(6.5969e-05 1.24372e-06 0)
(6.59039e-05 1.36551e-06 0)
(6.58296e-05 1.62101e-06 0)
(6.57389e-05 2.03526e-06 0)
(6.56233e-05 2.64886e-06 0)
(6.54719e-05 3.52194e-06 0)
(6.52711e-05 4.74005e-06 0)
(6.50031e-05 6.42245e-06 0)
(6.46453e-05 8.73364e-06 0)
(6.41697e-05 1.18988e-05 0)
(6.3543e-05 1.62244e-05 0)
(6.27291e-05 2.21236e-05 0)
(6.16957e-05 3.01462e-05 0)
(6.04278e-05 4.10054e-05 0)
(5.8951e-05 5.55848e-05 0)
(5.73568e-05 7.48824e-05 0)
(5.57948e-05 9.98128e-05 0)
(5.42481e-05 0.000130629 0)
(4.95636e-05 0.000163531 0)
(1.77507e-05 0.000153249 0)
(6.60313e-05 1.24342e-06 0)
(6.60972e-05 1.36508e-06 0)
(6.61726e-05 1.6203e-06 0)
(6.62653e-05 2.034e-06 0)
(6.63844e-05 2.64657e-06 0)
(6.65423e-05 3.51774e-06 0)
(6.6755e-05 4.73236e-06 0)
(6.70448e-05 6.40837e-06 0)
(6.74424e-05 8.70791e-06 0)
(6.79906e-05 1.1852e-05 0)
(6.8749e-05 1.61396e-05 0)
(6.97998e-05 2.19715e-05 0)
(7.12538e-05 2.98777e-05 0)
(7.32516e-05 4.0544e-05 0)
(7.59482e-05 5.48264e-05 0)
(7.94544e-05 7.37289e-05 0)
(8.36792e-05 9.83035e-05 0)
(8.79922e-05 0.000129372 0)
(9.02758e-05 0.000167189 0)
(7.71822e-05 0.000194498 0)
(6.60906e-05 1.12144e-06 0)
(6.62808e-05 1.2311e-06 0)
(6.64985e-05 1.46111e-06 0)
(6.67651e-05 1.83387e-06 0)
(6.7107e-05 2.38566e-06 0)
(6.75577e-05 3.17011e-06 0)
(6.81617e-05 4.26327e-06 0)
(6.89786e-05 5.77077e-06 0)
(7.00889e-05 7.83766e-06 0)
(7.16013e-05 1.06616e-05 0)
(7.36625e-05 1.45104e-05 0)
(7.64673e-05 1.9745e-05 0)
(8.02683e-05 2.68492e-05 0)
(8.53764e-05 3.64666e-05 0)
(9.21359e-05 4.94477e-05 0)
(0.000100833 6.6904e-05 0)
(0.000111469 9.02678e-05 0)
(0.000123271 0.000121293 0)
(0.00013398 0.000162277 0)
(0.000136407 0.000210077 0)
(6.6141e-05 8.89809e-07 0)
(6.64368e-05 9.76771e-07 0)
(6.67754e-05 1.15916e-06 0)
(6.71898e-05 1.4547e-06 0)
(6.77207e-05 1.89211e-06 0)
(6.84199e-05 2.51378e-06 0)
(6.93556e-05 3.37983e-06 0)
(7.06192e-05 4.57377e-06 0)
(7.23332e-05 6.21036e-06 0)
(7.46633e-05 8.44634e-06 0)
(7.78324e-05 1.14954e-05 0)
(8.21386e-05 1.56491e-05 0)
(8.79754e-05 2.13073e-05 0)
(9.58501e-05 2.90257e-05 0)
(0.000106386 3.95937e-05 0)
(0.000120274 5.41727e-05 0)
(0.000138088 7.45491e-05 0)
(0.000159736 0.00010356 0)
(0.000183168 0.00014587 0)
(0.000200768 0.000206457 0)
(6.61776e-05 5.71213e-07 0)
(6.65501e-05 6.27018e-07 0)
(6.69764e-05 7.44053e-07 0)
(6.74981e-05 9.33681e-07 0)
(6.81661e-05 1.2143e-06 0)
(6.90454e-05 1.61306e-06 0)
(7.02217e-05 2.1685e-06 0)
(7.18092e-05 2.93414e-06 0)
(7.39614e-05 3.98365e-06 0)
(7.68864e-05 5.41801e-06 0)
(8.08652e-05 7.37578e-06 0)
(8.62792e-05 1.00485e-05 0)
(9.36449e-05 1.37053e-05 0)
(0.000103663 1.87352e-05 0)
(0.000117283 2.57286e-05 0)
(0.000135788 3.56447e-05 0)
(0.000160867 5.01845e-05 0)
(0.000194484 7.26588e-05 0)
(0.000237633 0.000110191 0)
(0.000283223 0.000178946 0)
(6.61968e-05 3.93625e-07 0)
(6.66097e-05 4.32073e-07 0)
(6.70821e-05 5.12705e-07 0)
(6.76601e-05 6.43344e-07 0)
(6.84001e-05 8.36655e-07 0)
(6.93741e-05 1.11134e-06 0)
(7.06767e-05 1.49393e-06 0)
(7.24343e-05 2.02129e-06 0)
(7.48171e-05 2.74422e-06 0)
(7.80554e-05 3.73253e-06 0)
(8.24629e-05 5.0824e-06 0)
(8.84681e-05 6.92792e-06 0)
(9.66621e-05 9.46016e-06 0)
(0.000107873 1.29624e-05 0)
(0.000123295 1.78813e-05 0)
(0.000144729 2.49869e-05 0)
(0.000175105 3.57638e-05 0)
(0.000219718 5.34622e-05 0)
(0.000289568 8.62384e-05 0)
(0.000411341 0.000157308 0)
)
;

boundaryField
{
    x0
    {
        type            fixedValue;
        value           uniform (6.6e-05 0 0);
    }
    x1
    {
        type            zeroGradient;
    }
    y0
    {
        type            zeroGradient;
    }
    y1
    {
        type            zeroGradient;
    }
    z0
    {
        type            empty;
    }
    z1
    {
        type            empty;
    }
}


// ************************************************************************* //
