/*--------------------------------*- C++ -*----------------------------------*\
  =========                 |
  \\      /  F ield         | OpenFOAM: The Open Source CFD Toolbox
   \\    /   O peration     | Website:  https://openfoam.org
    \\  /    A nd           | Version:  7
     \\/     M anipulation  |
\*---------------------------------------------------------------------------*/
FoamFile
{
    version     2.0;
    format      ascii;
    class       volScalarField;
    location    "1000";
    object      C_0;
}
// * * * * * * * * * * * * * * * * * * * * * * * * * * * * * * * * * * * * * //

dimensions      [0 0 0 0 0 0 0];

internalField   nonuniform List<scalar> 
200
(
0.999934
1.0002
1.00005
0.999707
0.999859
1.00021
1.00027
0.999923
0.999727
1.00004
1.00014
0.999862
1.00007
1.00023
0.999705
0.999828
1.00044
1.00008
0.999678
0.999889
0.999934
1.0002
1.00005
0.999707
0.999859
1.00021
1.00027
0.999923
0.999727
1.00004
1.00014
0.999862
1.00007
1.00023
0.999705
0.999828
1.00044
1.00008
0.999678
0.999889
0.999934
1.0002
1.00005
0.999707
0.999859
1.00021
1.00027
0.999923
0.999727
1.00004
1.00014
0.999862
1.00007
1.00023
0.999705
0.999828
1.00044
1.00008
0.999678
0.999889
0.999934
1.0002
1.00005
0.999707
0.999859
1.00021
1.00027
0.999923
0.999727
1.00004
1.00014
0.999862
1.00007
1.00023
0.999705
0.999828
1.00044
1.00008
0.999678
0.999889
0.999934
1.0002
1.00005
0.999707
0.999859
1.00021
1.00027
0.999923
0.999727
1.00004
1.00014
0.999862
1.00007
1.00023
0.999705
0.999828
1.00044
1.00008
0.999678
0.999889
0.999934
1.0002
1.00005
0.999707
0.999859
1.00021
1.00027
0.999923
0.999727
1.00004
1.00014
0.999862
1.00007
1.00023
0.999705
0.999828
1.00044
1.00008
0.999678
0.999889
0.999934
1.0002
1.00005
0.999707
0.999859
1.00021
1.00027
0.999923
0.999727
1.00004
1.00014
0.999862
1.00007
1.00023
0.999705
0.999828
1.00044
1.00008
0.999678
0.999889
0.999934
1.0002
1.00005
0.999707
0.999859
1.00021
1.00027
0.999923
0.999727
1.00004
1.00014
0.999862
1.00007
1.00023
0.999705
0.999828
1.00044
1.00008
0.999678
0.999889
0.999934
1.0002
1.00005
0.999707
0.999859
1.00021
1.00027
0.999923
0.999727
1.00004
1.00014
0.999862
1.00007
1.00023
0.999705
0.999828
1.00044
1.00008
0.999678
0.999889
0.999934
1.0002
1.00005
0.999707
0.999859
1.00021
1.00027
0.999923
0.999727
1.00004
1.00014
0.999862
1.00007
1.00023
0.999705
0.999828
1.00044
1.00008
0.999678
0.999889
)
;

boundaryField
{
    x0
    {
        type            fixedValue;
        value           uniform 1;
    }
    x1
    {
        type            zeroGradient;
    }
    y0
    {
        type            zeroGradient;
    }
    y1
    {
        type            zeroGradient;
    }
    z0
    {
        type            empty;
    }
    z1
    {
        type            empty;
    }
}


// ************************************************************************* //
