/*--------------------------------*- C++ -*----------------------------------*\
  =========                 |
  \\      /  F ield         | OpenFOAM: The Open Source CFD Toolbox
   \\    /   O peration     | Website:  https://openfoam.org
    \\  /    A nd           | Version:  7
     \\/     M anipulation  |
\*---------------------------------------------------------------------------*/
FoamFile
{
    version     2.0;
    format      ascii;
    class       volScalarField;
    location    "240000";
    object      C;
}
// * * * * * * * * * * * * * * * * * * * * * * * * * * * * * * * * * * * * * //

dimensions      [0 0 0 0 0 0 0];

internalField   nonuniform List<scalar> 
200
(
-6.76577e-43
1.73434e-40
-4.23521e-38
9.92236e-36
-2.23086e-33
4.82113e-31
-1.00508e-28
2.03462e-26
-4.04517e-24
8.05403e-22
-1.66188e-19
3.79263e-17
-1.10621e-14
6.73499e-12
4.33929e-09
5.76254e-07
3.02915e-05
0.000705055
0.00708618
0.0287648
-3.14821e-44
8.12566e-42
-1.99781e-39
4.71109e-37
-1.06544e-34
2.3133e-32
-4.83473e-30
9.77545e-28
-1.92901e-25
3.77091e-23
-7.4926e-21
1.58559e-18
-3.93214e-16
1.47986e-13
6.32798e-10
1.19684e-07
8.14165e-06
0.000247686
0.00351473
0.0217277
1.1955e-44
-3.1288e-42
7.79403e-40
-1.86019e-37
4.25195e-35
-9.31219e-33
1.95748e-30
-3.96362e-28
7.78143e-26
-1.49774e-23
2.88017e-21
-5.7178e-19
1.24493e-16
-3.37743e-14
1.65744e-11
9.80497e-09
1.19362e-06
5.94118e-05
0.0014015
0.0150301
2.57254e-46
-5.90597e-44
1.24993e-41
-2.41958e-39
4.15466e-37
-5.87935e-35
5.13278e-33
5.17504e-31
-4.24047e-28
1.45902e-25
-4.03695e-23
1.024e-20
-2.56942e-18
6.93734e-16
-2.32673e-13
1.42102e-10
5.52512e-08
6.1321e-06
0.000323056
0.00862206
-8.09527e-46
2.14854e-43
-5.38951e-41
1.28408e-38
-2.89809e-36
6.17869e-34
-1.24083e-31
2.3408e-29
-4.13791e-27
6.84202e-25
-1.05758e-22
1.53e-20
-2.07808e-18
2.65757e-16
-3.17315e-14
3.24005e-12
7.55064e-11
2.16459e-07
1.4515e-05
0.00144806
-9.49445e-45
2.64645e-42
-6.98293e-40
1.75218e-37
-4.16875e-35
9.37175e-33
-1.98275e-30
3.92894e-28
-7.25041e-26
1.2375e-23
-1.93725e-21
2.75316e-19
-3.50744e-17
3.94352e-15
-3.83889e-13
3.16209e-11
-2.14651e-09
1.1748e-07
-4.52572e-06
0.000190666
-9.00499e-45
2.61056e-42
-7.16008e-40
1.86531e-37
-4.59911e-35
1.06845e-32
-2.32592e-30
4.71234e-28
-8.81027e-26
1.50408e-23
-2.31422e-21
3.15795e-19
-3.74787e-17
3.77946e-15
-3.15196e-13
2.10831e-11
-1.09315e-09
4.2233e-08
-1.14726e-06
1.96363e-05
-2.66884e-45
8.01424e-43
-2.27586e-40
6.13282e-38
-1.56177e-35
3.73873e-33
-8.35765e-31
1.72999e-28
-3.28108e-26
5.62722e-24
-8.58685e-22
1.14309e-19
-1.29669e-17
1.21954e-15
-9.21678e-14
5.4034e-12
-2.36026e-10
7.30655e-09
-1.48149e-07
1.60048e-06
-3.27522e-46
1.01355e-43
-2.96604e-41
8.23309e-39
-2.15801e-36
5.31033e-34
-1.21766e-31
2.57729e-29
-4.97582e-27
8.63405e-25
-1.32236e-22
1.74909e-20
-1.94736e-18
1.77161e-16
-1.27321e-14
6.95492e-13
-2.75861e-11
7.48179e-10
-1.2574e-08
1.01627e-07
-1.7496e-47
5.51976e-45
-1.64708e-42
4.66187e-40
-1.24578e-37
3.12403e-35
-7.29428e-33
1.57008e-30
-3.07676e-28
5.40451e-26
-8.34977e-24
1.10916e-21
-1.23357e-19
1.11403e-17
-7.88988e-16
4.20985e-14
-1.61202e-12
4.1446e-11
-6.38353e-10
4.37096e-09
)
;

boundaryField
{
    x0
    {
        type            fixedValue;
        value           uniform 0;
    }
    x1
    {
        type            inletOutlet;
        inletValue      uniform 0.0357;
        value           nonuniform List<scalar> 10(0.0357 0.0357 0.0357 0.0357 0.00144806 0.000190666 1.96363e-05 1.60048e-06 1.01627e-07 4.37096e-09);
    }
    y0
    {
        type            zeroGradient;
    }
    y1
    {
        type            zeroGradient;
    }
    z0
    {
        type            empty;
    }
    z1
    {
        type            empty;
    }
}


// ************************************************************************* //
