/*--------------------------------*- C++ -*----------------------------------*\
  =========                 |
  \\      /  F ield         | OpenFOAM: The Open Source CFD Toolbox
   \\    /   O peration     | Website:  https://openfoam.org
    \\  /    A nd           | Version:  7
     \\/     M anipulation  |
\*---------------------------------------------------------------------------*/
FoamFile
{
    version     2.0;
    format      ascii;
    class       volScalarField;
    location    "240000";
    object      C_0;
}
// * * * * * * * * * * * * * * * * * * * * * * * * * * * * * * * * * * * * * //

dimensions      [0 0 0 0 0 0 0];

internalField   nonuniform List<scalar> 
200
(
-6.73225e-43
1.72617e-40
-4.21631e-38
9.88053e-36
-2.22201e-33
4.80319e-31
-1.00159e-28
2.02806e-26
-4.03311e-24
8.032e-22
-1.65774e-19
3.7841e-17
-1.10398e-14
6.72287e-12
4.33276e-09
5.75541e-07
3.02622e-05
0.000704569
0.00708334
0.028761
-3.13181e-44
8.0853e-42
-1.98837e-39
4.69e-37
-1.06094e-34
2.30408e-32
-4.81665e-30
9.74127e-28
-1.92274e-25
3.75956e-23
-7.47185e-21
1.58158e-18
-3.9231e-16
1.47678e-13
6.31817e-10
1.19531e-07
8.13344e-06
0.000247503
0.0035131
0.0217239
1.18948e-44
-3.11381e-42
7.75858e-40
-1.85219e-37
4.23468e-35
-9.27662e-33
1.95048e-30
-3.9504e-28
7.75735e-26
-1.49346e-23
2.87264e-21
-5.7042e-19
1.24226e-16
-3.37095e-14
1.65461e-11
9.79162e-09
1.19234e-06
5.93641e-05
0.00140076
0.0150266
2.55987e-46
-5.87843e-44
1.24444e-41
-2.40964e-39
4.13887e-37
-5.85927e-35
5.11937e-33
5.14792e-31
-4.22545e-28
1.4545e-25
-4.0257e-23
1.02143e-20
-2.56359e-18
6.92321e-16
-2.32249e-13
1.4187e-10
5.51817e-08
6.12637e-06
0.000322852
0.00861936
-8.05256e-46
2.13774e-43
-5.36377e-41
1.27828e-38
-2.88573e-36
6.15391e-34
-1.23618e-31
2.33263e-29
-4.12456e-27
6.82176e-25
-1.05474e-22
1.52629e-20
-2.0736e-18
2.65254e-16
-3.16798e-14
3.23576e-12
7.51934e-11
2.16212e-07
1.45014e-05
0.00144732
-9.4427e-45
2.63267e-42
-6.94831e-40
1.74393e-37
-4.15015e-35
9.33224e-33
-1.97489e-30
3.91433e-28
-7.22525e-26
1.23351e-23
-1.93149e-21
2.74566e-19
-3.49876e-17
3.93474e-15
-3.8313e-13
3.15663e-11
-2.14335e-09
1.17336e-07
-4.52143e-06
0.000190525
-8.95373e-45
2.59635e-42
-7.12285e-40
1.85607e-37
-4.57747e-35
1.06368e-32
-2.31613e-30
4.69366e-28
-8.77754e-26
1.49887e-23
-2.30678e-21
3.14857e-19
-3.73767e-17
3.77012e-15
-3.14496e-13
2.10415e-11
-1.09127e-09
4.2171e-08
-1.14586e-06
1.96172e-05
-2.653e-45
7.96863e-43
-2.26347e-40
6.10095e-38
-1.55404e-35
3.72115e-33
-8.32042e-31
1.72271e-28
-3.26809e-26
5.60634e-24
-8.55712e-22
1.13942e-19
-1.29284e-17
1.21623e-15
-9.19405e-14
5.39143e-12
-2.35562e-10
7.29403e-09
-1.47932e-07
1.59854e-06
-3.25498e-46
1.00753e-43
-2.94917e-41
8.18829e-39
-2.1468e-36
5.28406e-34
-1.21194e-31
2.56582e-29
-4.9549e-27
8.5999e-25
-1.31746e-22
1.74304e-20
-1.94112e-18
1.76637e-16
-1.26976e-14
6.93782e-13
-2.75252e-11
7.46716e-10
-1.25526e-08
1.01481e-07
-1.73835e-47
5.48562e-45
-1.6373e-42
4.63535e-40
-1.239e-37
3.1078e-35
-7.2582e-33
1.5627e-30
-3.06307e-28
5.3818e-26
-8.31676e-24
1.10505e-21
-1.22931e-19
1.11046e-17
-7.86658e-16
4.19848e-14
-1.60807e-12
4.1355e-11
-6.37116e-10
4.36367e-09
)
;

boundaryField
{
    x0
    {
        type            fixedValue;
        value           uniform 0;
    }
    x1
    {
        type            inletOutlet;
        inletValue      uniform 0.0357;
        value           nonuniform List<scalar> 10(0.0357 0.0357 0.0357 0.0357 0.00144732 0.000190525 1.96172e-05 1.59854e-06 1.01481e-07 4.36367e-09);
    }
    y0
    {
        type            zeroGradient;
    }
    y1
    {
        type            zeroGradient;
    }
    z0
    {
        type            empty;
    }
    z1
    {
        type            empty;
    }
}


// ************************************************************************* //
