/*--------------------------------*- C++ -*----------------------------------*\
  =========                 |
  \\      /  F ield         | OpenFOAM: The Open Source CFD Toolbox
   \\    /   O peration     | Website:  https://openfoam.org
    \\  /    A nd           | Version:  7
     \\/     M anipulation  |
\*---------------------------------------------------------------------------*/
FoamFile
{
    version     2.0;
    format      ascii;
    class       surfaceScalarField;
    location    "240000";
    object      phi;
}
// * * * * * * * * * * * * * * * * * * * * * * * * * * * * * * * * * * * * * //

dimensions      [0 3 -1 0 0 0 0];

internalField   nonuniform List<scalar> 
370
(
6.56126e-06
3.87364e-08
6.51873e-06
4.25318e-08
6.46824e-06
5.04959e-08
6.40482e-06
6.34119e-08
6.32227e-06
8.25524e-08
6.21246e-06
1.09807e-07
6.06459e-06
1.47878e-07
5.86403e-06
2.0056e-07
5.59087e-06
2.73156e-07
5.21778e-06
3.7309e-07
4.70693e-06
5.10847e-07
4.00542e-06
7.01514e-07
3.03789e-06
9.6753e-07
1.69376e-06
1.34413e-06
-1.97855e-07
1.89161e-06
-2.92412e-06
2.72627e-06
-7.02156e-06
4.09744e-06
-1.34056e-05
6.38403e-06
-2.18026e-05
8.39697e-06
3.5513e-06
6.56506e-06
7.36773e-08
6.5267e-06
8.08951e-08
6.48115e-06
9.60397e-08
6.42396e-06
1.20599e-07
6.34953e-06
1.5699e-07
6.25053e-06
2.08799e-07
6.11727e-06
2.81144e-07
5.93662e-06
3.81205e-07
5.6908e-06
5.18975e-07
5.35554e-06
7.08358e-07
4.8976e-06
9.68782e-07
4.27143e-06
1.32768e-06
3.41449e-06
1.82447e-06
2.24124e-06
2.51739e-06
6.37043e-07
3.4958e-06
-1.53975e-06
4.90306e-06
-4.41519e-06
6.97288e-06
-8.01711e-06
9.98595e-06
-1.26872e-05
1.30671e-05
8.6799e-06
6.57228e-06
1.014e-07
6.54184e-06
1.11332e-07
6.50571e-06
1.32168e-07
6.46036e-06
1.65956e-07
6.40133e-06
2.16011e-07
6.32288e-06
2.87254e-07
6.21733e-06
3.86695e-07
6.07439e-06
5.24141e-07
5.88019e-06
7.13181e-07
5.61596e-06
9.72583e-07
5.2565e-06
1.32824e-06
4.76823e-06
1.81595e-06
4.10741e-06
2.48529e-06
3.21965e-06
3.40514e-06
2.04434e-06
4.67111e-06
5.33293e-07
6.41411e-06
-1.29799e-06
8.80416e-06
-3.32351e-06
1.20115e-05
-5.93161e-06
1.56752e-05
1.36693e-05
6.58221e-06
1.19192e-07
6.56268e-06
1.30863e-07
6.5395e-06
1.55347e-07
6.51041e-06
1.95044e-07
6.47258e-06
2.53844e-07
6.42232e-06
3.3751e-07
6.35477e-06
4.54242e-07
6.26343e-06
6.15482e-07
6.13959e-06
8.37026e-07
5.97162e-06
1.14055e-06
5.74421e-06
1.55566e-06
5.43757e-06
2.12259e-06
5.02726e-06
2.8956e-06
4.48562e-06
3.94678e-06
3.78734e-06
5.36939e-06
2.92378e-06
7.27768e-06
1.93181e-06
9.79613e-06
9.20569e-07
1.30227e-05
-2.64695e-07
1.68605e-05
1.82362e-05
6.59388e-06
1.25314e-07
6.58716e-06
1.3758e-07
6.5792e-06
1.63312e-07
6.56921e-06
2.05029e-07
6.55624e-06
2.66811e-07
6.53905e-06
3.54699e-07
6.51601e-06
4.77281e-07
6.48498e-06
6.4652e-07
6.44311e-06
8.78891e-07
6.38673e-06
1.19693e-06
6.31114e-06
1.63125e-06
6.21057e-06
2.22316e-06
6.07844e-06
3.02773e-06
5.90824e-06
4.11698e-06
5.69563e-06
5.582e-06
5.44225e-06
7.53106e-06
5.1606e-06
1.00778e-05
4.87418e-06
1.33091e-05
4.51633e-06
1.72183e-05
2.11232e-05
6.60614e-06
1.19169e-07
6.61289e-06
1.3083e-07
6.62091e-06
1.55294e-07
6.63099e-06
1.94949e-07
6.64413e-06
2.53672e-07
6.66164e-06
3.37195e-07
6.68525e-06
4.53664e-07
6.71735e-06
6.14424e-07
6.76115e-06
8.3509e-07
6.82106e-06
1.13702e-06
6.90305e-06
1.54926e-06
7.01514e-06
2.11108e-06
7.16769e-06
2.87518e-06
7.37326e-06
3.91141e-06
7.64468e-06
5.31058e-06
7.98897e-06
7.18677e-06
8.39208e-06
9.67467e-06
8.78673e-06
1.29145e-05
8.99102e-06
1.7014e-05
2.18979e-05
6.61781e-06
1.01363e-07
6.63736e-06
1.1128e-07
6.66057e-06
1.32082e-07
6.68972e-06
1.65802e-07
6.72765e-06
2.15732e-07
6.77811e-06
2.86743e-07
6.84601e-06
3.85758e-07
6.93802e-06
5.22421e-07
7.06308e-06
7.10027e-07
7.2333e-06
9.66804e-07
7.46487e-06
1.31768e-06
7.77924e-06
1.79671e-06
8.20393e-06
2.45049e-06
8.77243e-06
3.34291e-06
9.52086e-06
4.56215e-06
1.04769e-05
6.23076e-06
1.16319e-05
8.51959e-06
1.28843e-05
1.16622e-05
1.39504e-05
1.59479e-05
2.15946e-05
6.62772e-06
7.36397e-08
6.65816e-06
8.08432e-08
6.69429e-06
9.59535e-08
6.73964e-06
1.20446e-07
6.79867e-06
1.56711e-07
6.87712e-06
2.08287e-07
6.98268e-06
2.80204e-07
7.12562e-06
3.79475e-07
7.31986e-06
5.15791e-07
7.58417e-06
7.02489e-07
7.94391e-06
9.57945e-07
8.43301e-06
1.30761e-06
9.09635e-06
1.78715e-06
9.99167e-06
2.44758e-06
1.11895e-05
3.36436e-06
1.27657e-05
4.65455e-06
1.47745e-05
6.51073e-06
1.71695e-05
9.26719e-06
1.96049e-05
1.35125e-05
2.01696e-05
6.63493e-06
3.87131e-08
6.67327e-06
4.24997e-08
6.71878e-06
5.04426e-08
6.77591e-06
6.33171e-08
6.85024e-06
8.23797e-08
6.94904e-06
1.0949e-07
7.08195e-06
1.47295e-07
7.26194e-06
1.99486e-07
7.50655e-06
2.71173e-07
7.83963e-06
3.69415e-07
8.29357e-06
5.03998e-07
8.91255e-06
6.88634e-07
9.75678e-06
9.42925e-07
1.09084e-05
1.29591e-06
1.24797e-05
1.79315e-06
1.46219e-05
2.51233e-06
1.7531e-05
3.60161e-06
2.14148e-05
5.38337e-06
2.62626e-05
8.66471e-06
1.57629e-05
6.63871e-06
6.68121e-06
6.73166e-06
6.79497e-06
6.87735e-06
6.98684e-06
7.13414e-06
7.33362e-06
7.6048e-06
7.97421e-06
8.47821e-06
9.16684e-06
1.01098e-05
1.14057e-05
1.31988e-05
1.57112e-05
1.93128e-05
2.46961e-05
3.33608e-05
)
;

boundaryField
{
    x0
    {
        type            calculated;
        value           nonuniform List<scalar> 10(-6.6e-06 -6.6e-06 -6.6e-06 -6.6e-06 -6.6e-06 -6.6e-06 -6.6e-06 -6.6e-06 -6.6e-06 -6.6e-06);
    }
    x1
    {
        type            calculated;
        value           nonuniform List<scalar> 10(-2.53539e-05 -1.78159e-05 -1.0921e-05 -4.83165e-06 1.62931e-06 8.21641e-06 1.42537e-05 2.10298e-05 3.06694e-05 4.91237e-05);
    }
    y0
    {
        type            calculated;
        value           uniform 0;
    }
    y1
    {
        type            calculated;
        value           uniform 0;
    }
    z0
    {
        type            empty;
        value           nonuniform 0();
    }
    z1
    {
        type            empty;
        value           nonuniform 0();
    }
}


// ************************************************************************* //
