/*--------------------------------*- C++ -*----------------------------------*\
  =========                 |
  \\      /  F ield         | OpenFOAM: The Open Source CFD Toolbox
   \\    /   O peration     | Website:  https://openfoam.org
    \\  /    A nd           | Version:  7
     \\/     M anipulation  |
\*---------------------------------------------------------------------------*/
FoamFile
{
    version     2.0;
    format      ascii;
    class       volVectorField;
    location    "240000";
    object      Utheta;
}
// * * * * * * * * * * * * * * * * * * * * * * * * * * * * * * * * * * * * * //

dimensions      [0 1 -1 0 0 0 0];

internalField   nonuniform List<vector> 
200
(
(6.58063e-05 3.87364e-07 0)
(6.54e-05 4.25318e-07 0)
(6.49348e-05 5.04959e-07 0)
(6.43653e-05 6.34119e-07 0)
(6.36355e-05 8.25524e-07 0)
(6.26737e-05 1.09807e-06 0)
(6.13853e-05 1.47878e-06 0)
(5.96431e-05 2.0056e-06 0)
(5.72745e-05 2.73156e-06 0)
(5.40433e-05 3.7309e-06 0)
(4.96236e-05 5.10847e-06 0)
(4.35618e-05 7.01514e-06 0)
(3.52165e-05 9.6753e-06 0)
(2.36582e-05 1.34413e-05 0)
(7.47951e-06 1.89161e-05 0)
(-1.56099e-05 2.72627e-05 0)
(-4.97284e-05 4.09744e-05 0)
(-0.000102136 6.38403e-05 0)
(-0.000176041 8.39697e-05 0)
(-0.000235782 3.5513e-05 0)
(6.58253e-05 5.62068e-07 0)
(6.54588e-05 6.17135e-07 0)
(6.50392e-05 7.32678e-07 0)
(6.45256e-05 9.20057e-07 0)
(6.38675e-05 1.19771e-06 0)
(6.30003e-05 1.59303e-06 0)
(6.1839e-05 2.14511e-06 0)
(6.02695e-05 2.90882e-06 0)
(5.81371e-05 3.96066e-06 0)
(5.52317e-05 5.40724e-06 0)
(5.12657e-05 7.39815e-06 0)
(4.58452e-05 1.0146e-05 0)
(3.84296e-05 1.396e-05 0)
(2.82786e-05 1.93076e-05 0)
(1.43914e-05 2.69371e-05 0)
(-4.51354e-06 3.81466e-05 0)
(-2.97747e-05 5.53516e-05 0)
(-6.21615e-05 8.18499e-05 0)
(-0.000103522 0.00010732 0)
(-0.000152516 6.1156e-05 0)
(6.58614e-05 8.75388e-07 0)
(6.55706e-05 9.61134e-07 0)
(6.52378e-05 1.14104e-06 0)
(6.48303e-05 1.43278e-06 0)
(6.43085e-05 1.86501e-06 0)
(6.36211e-05 2.48026e-06 0)
(6.2701e-05 3.3392e-06 0)
(6.14586e-05 4.52673e-06 0)
(5.97729e-05 6.16078e-06 0)
(5.74807e-05 8.40471e-06 0)
(5.43623e-05 1.14851e-05 0)
(5.01236e-05 1.57182e-05 0)
(4.43782e-05 2.15488e-05 0)
(3.66353e-05 2.96127e-05 0)
(2.632e-05 4.08346e-05 0)
(1.28882e-05 5.65859e-05 0)
(-3.82346e-06 7.88852e-05 0)
(-2.31075e-05 0.000109987 0)
(-4.62756e-05 0.000143712 0)
(-8.42629e-05 0.000111746 0)
(6.5911e-05 1.10296e-06 0)
(6.57244e-05 1.21097e-06 0)
(6.55109e-05 1.43758e-06 0)
(6.52495e-05 1.805e-06 0)
(6.49149e-05 2.34927e-06 0)
(6.44745e-05 3.12382e-06 0)
(6.38855e-05 4.20469e-06 0)
(6.3091e-05 5.69812e-06 0)
(6.20151e-05 7.75104e-06 0)
(6.05561e-05 1.05657e-05 0)
(5.85792e-05 1.44195e-05 0)
(5.59089e-05 1.96927e-05 0)
(5.23241e-05 2.69045e-05 0)
(4.75644e-05 3.67596e-05 0)
(4.13648e-05 5.02025e-05 0)
(3.35556e-05 6.84589e-05 0)
(2.42779e-05 9.30014e-05 0)
(1.42619e-05 0.000125171 0)
(3.27937e-06 0.000162678 0)
(-2.54817e-05 0.000159527 0)
(6.59694e-05 1.22253e-06 0)
(6.59052e-05 1.34221e-06 0)
(6.58318e-05 1.5933e-06 0)
(6.5742e-05 2.00036e-06 0)
(6.56273e-05 2.60327e-06 0)
(6.54765e-05 3.46104e-06 0)
(6.52753e-05 4.65762e-06 0)
(6.5005e-05 6.31001e-06 0)
(6.46404e-05 8.57959e-06 0)
(6.41492e-05 1.16874e-05 0)
(6.34894e-05 1.59346e-05 0)
(6.26086e-05 2.17288e-05 0)
(6.14451e-05 2.96166e-05 0)
(5.99334e-05 4.03188e-05 0)
(5.80193e-05 5.4757e-05 0)
(5.56894e-05 7.40437e-05 0)
(5.30142e-05 9.93695e-05 0)
(5.01739e-05 0.000131659 0)
(4.69525e-05 0.000170394 0)
(3.07282e-05 0.000196797 0)
(6.60307e-05 1.22241e-06 0)
(6.60952e-05 1.34205e-06 0)
(6.6169e-05 1.59303e-06 0)
(6.62595e-05 1.99989e-06 0)
(6.63756e-05 2.60241e-06 0)
(6.65288e-05 3.45947e-06 0)
(6.67344e-05 4.65473e-06 0)
(6.7013e-05 6.30472e-06 0)
(6.73925e-05 8.56991e-06 0)
(6.7911e-05 1.16697e-05 0)
(6.86206e-05 1.59026e-05 0)
(6.9591e-05 2.16712e-05 0)
(7.09141e-05 2.95145e-05 0)
(7.27047e-05 4.0142e-05 0)
(7.50897e-05 5.44629e-05 0)
(7.81682e-05 7.35891e-05 0)
(8.19052e-05 9.87622e-05 0)
(8.5894e-05 0.000131118 0)
(8.88888e-05 0.000171162 0)
(8.60371e-05 0.000215106 0)
(6.6089e-05 1.10266e-06 0)
(6.62758e-05 1.21055e-06 0)
(6.64896e-05 1.43688e-06 0)
(6.67514e-05 1.80376e-06 0)
(6.70868e-05 2.34702e-06 0)
(6.75288e-05 3.11969e-06 0)
(6.81206e-05 4.19711e-06 0)
(6.89201e-05 5.68422e-06 0)
(7.00055e-05 7.72558e-06 0)
(7.14819e-05 1.05191e-05 0)
(7.34908e-05 1.43347e-05 0)
(7.62206e-05 1.9539e-05 0)
(7.99158e-05 2.66283e-05 0)
(8.48818e-05 3.62716e-05 0)
(9.14665e-05 4.93637e-05 0)
(9.99886e-05 6.70877e-05 0)
(0.000110544 9.09713e-05 0)
(0.000122581 0.000122883 0)
(0.000134173 0.00016481 0)
(0.00014102 0.000217462 0)
(6.61386e-05 8.75012e-07 0)
(6.64294e-05 9.60614e-07 0)
(6.67622e-05 1.14018e-06 0)
(6.71697e-05 1.43124e-06 0)
(6.76916e-05 1.86222e-06 0)
(6.83789e-05 2.47515e-06 0)
(6.9299e-05 3.32981e-06 0)
(7.05415e-05 4.50948e-06 0)
(7.22274e-05 6.12909e-06 0)
(7.45201e-05 8.34646e-06 0)
(7.76404e-05 1.13781e-05 0)
(8.18846e-05 1.55216e-05 0)
(8.76468e-05 2.11882e-05 0)
(9.54401e-05 2.89525e-05 0)
(0.000105906 3.96326e-05 0)
(0.000119776 5.44265e-05 0)
(0.000137701 7.51516e-05 0)
(0.00015972 0.000104647 0)
(0.000183872 0.000147302 0)
(0.000203174 0.000208821 0)
(6.61746e-05 5.61764e-07 0)
(6.6541e-05 6.16714e-07 0)
(6.69603e-05 7.31981e-07 0)
(6.74735e-05 9.18816e-07 0)
(6.81308e-05 1.19545e-06 0)
(6.89964e-05 1.58889e-06 0)
(7.01549e-05 2.13749e-06 0)
(7.17194e-05 2.89481e-06 0)
(7.38425e-05 3.93482e-06 0)
(7.67309e-05 5.35952e-06 0)
(8.0666e-05 7.30972e-06 0)
(8.60306e-05 9.98123e-06 0)
(9.33467e-05 1.36504e-05 0)
(0.000103326 1.87175e-05 0)
(0.000116941 2.57875e-05 0)
(0.000135508 3.58344e-05 0)
(0.000160764 5.05617e-05 0)
(0.000194729 7.32528e-05 0)
(0.000238387 0.000110886 0)
(0.00028466 0.000179663 0)
(6.61936e-05 3.87131e-07 0)
(6.65996e-05 4.24997e-07 0)
(6.70643e-05 5.04426e-07 0)
(6.76331e-05 6.33171e-07 0)
(6.83616e-05 8.23797e-07 0)
(6.9321e-05 1.0949e-06 0)
(7.06049e-05 1.47295e-06 0)
(7.23388e-05 1.99486e-06 0)
(7.46921e-05 2.71173e-06 0)
(7.7895e-05 3.69415e-06 0)
(8.22621e-05 5.03998e-06 0)
(8.82253e-05 6.88634e-06 0)
(9.63831e-05 9.42925e-06 0)
(0.000107577 1.29591e-05 0)
(0.000123023 1.79315e-05 0)
(0.00014455 2.51233e-05 0)
(0.00017512 3.60161e-05 0)
(0.000220045 5.38337e-05 0)
(0.000290285 8.66471e-05 0)
(0.000412423 0.000157629 0)
)
;

boundaryField
{
    x0
    {
        type            fixedValue;
        value           uniform (6.6e-05 0 0);
    }
    x1
    {
        type            zeroGradient;
    }
    y0
    {
        type            zeroGradient;
    }
    y1
    {
        type            zeroGradient;
    }
    z0
    {
        type            empty;
    }
    z1
    {
        type            empty;
    }
}


// ************************************************************************* //
