/*--------------------------------*- C++ -*----------------------------------*\
  =========                 |
  \\      /  F ield         | OpenFOAM: The Open Source CFD Toolbox
   \\    /   O peration     | Website:  https://openfoam.org
    \\  /    A nd           | Version:  7
     \\/     M anipulation  |
\*---------------------------------------------------------------------------*/
FoamFile
{
    version     2.0;
    format      ascii;
    class       volScalarField;
    location    "300000";
    object      C;
}
// * * * * * * * * * * * * * * * * * * * * * * * * * * * * * * * * * * * * * //

dimensions      [0 0 0 0 0 0 0];

internalField   nonuniform List<scalar> 
200
(
-5.6868e-41
1.17028e-38
-2.28993e-36
4.29918e-34
-7.7466e-32
1.3419e-29
-2.2428e-27
3.64105e-25
-5.80807e-23
9.28483e-21
-1.54014e-18
2.83218e-16
-6.69395e-14
3.38825e-11
1.66765e-08
1.73881e-06
7.165e-05
0.00129501
0.0100245
0.0320341
-3.33158e-42
6.90968e-40
-1.36275e-37
2.57837e-35
-4.67985e-33
8.15763e-31
-1.36941e-28
2.22531e-26
-3.53217e-24
5.56054e-22
-8.91318e-20
1.52603e-17
-3.07822e-15
9.55584e-13
2.5357e-09
3.74531e-07
1.99984e-05
0.000477079
0.00527188
0.025217
1.079e-42
-2.27418e-40
4.55475e-38
-8.74208e-36
1.60738e-33
-2.83273e-31
4.79356e-29
-7.81808e-27
1.23718e-24
-1.92136e-22
2.98544e-20
-4.79912e-18
8.48978e-16
-1.88269e-13
7.65809e-11
3.3218e-08
3.129e-06
0.000121659
0.00223982
0.0182628
2.20117e-44
-4.02804e-42
6.76205e-40
-1.03274e-37
1.38193e-35
-1.46722e-33
7.38792e-32
1.82239e-29
-7.96076e-27
2.06112e-24
-4.50087e-22
9.18734e-20
-1.87953e-17
4.18739e-15
-1.17444e-12
6.11328e-10
1.7057e-07
1.417e-05
0.000569623
0.0113413
-9.18936e-44
1.94987e-41
-3.8987e-39
7.39399e-37
-1.32616e-34
2.24238e-32
-3.5629e-30
5.30259e-28
-7.37081e-26
9.5505e-24
-1.15326e-21
1.30132e-19
-1.38068e-17
1.38661e-15
-1.30385e-13
9.94317e-12
9.48852e-10
5.98934e-07
3.36087e-05
0.00227199
-1.24631e-42
2.78755e-40
-5.89104e-38
1.18381e-35
-2.25528e-33
4.05929e-31
-6.87492e-29
1.09037e-26
-1.61022e-24
2.19893e-22
-2.75372e-20
3.13005e-18
-3.1886e-16
2.86585e-14
-2.22906e-12
1.4658e-10
-7.934e-09
3.46798e-07
-1.03984e-05
0.000366041
-1.46629e-42
3.4114e-40
-7.49583e-38
1.56434e-35
-3.08961e-33
5.74907e-31
-1.00234e-28
1.62624e-26
-2.43449e-24
3.32725e-22
-4.09754e-20
4.47411e-18
-4.24737e-16
3.42461e-14
-2.28236e-12
1.21929e-10
-5.04639e-09
1.55572e-07
-3.37173e-06
4.6464e-05
-5.40865e-43
1.30336e-40
-2.9652e-38
6.40099e-36
-1.30572e-33
2.50362e-31
-4.48225e-29
7.42966e-27
-1.12821e-24
1.54894e-22
-1.89165e-20
2.0148e-18
-1.82806e-16
1.37465e-14
-8.30316e-13
3.88892e-11
-1.35662e-09
3.35277e-08
-5.42476e-07
4.66669e-06
-8.26382e-44
2.05199e-41
-4.81044e-39
1.06958e-36
-2.24548e-34
4.42526e-32
-8.12558e-30
1.37701e-27
-2.12819e-25
2.95558e-23
-3.62204e-21
3.83239e-19
-3.41211e-17
2.48152e-15
-1.42518e-13
6.21885e-12
-1.96946e-10
4.26141e-09
-5.7026e-08
3.6393e-07
-5.52301e-45
1.39788e-42
-3.3409e-40
7.57292e-38
-1.62049e-35
3.2536e-33
-6.08143e-31
1.0477e-28
-1.64287e-26
2.30858e-24
-2.85241e-22
3.02924e-20
-2.6924e-18
1.94237e-16
-1.0984e-14
4.67691e-13
-1.42789e-11
2.92261e-10
-3.57039e-09
1.91132e-08
)
;

boundaryField
{
    x0
    {
        type            fixedValue;
        value           uniform 0;
    }
    x1
    {
        type            inletOutlet;
        inletValue      uniform 0.0357;
        value           nonuniform List<scalar> 10(0.0357 0.0357 0.0357 0.0357 0.00227199 0.000366041 4.6464e-05 4.66669e-06 3.6393e-07 1.91132e-08);
    }
    y0
    {
        type            zeroGradient;
    }
    y1
    {
        type            zeroGradient;
    }
    z0
    {
        type            empty;
    }
    z1
    {
        type            empty;
    }
}


// ************************************************************************* //
