/*--------------------------------*- C++ -*----------------------------------*\
  =========                 |
  \\      /  F ield         | OpenFOAM: The Open Source CFD Toolbox
   \\    /   O peration     | Website:  https://openfoam.org
    \\  /    A nd           | Version:  7
     \\/     M anipulation  |
\*---------------------------------------------------------------------------*/
FoamFile
{
    version     2.0;
    format      ascii;
    class       volScalarField;
    location    "300000";
    object      C_0;
}
// * * * * * * * * * * * * * * * * * * * * * * * * * * * * * * * * * * * * * //

dimensions      [0 0 0 0 0 0 0];

internalField   nonuniform List<scalar> 
200
(
-5.66426e-41
1.16587e-38
-2.28175e-36
4.28469e-34
-7.72202e-32
1.3379e-29
-2.23657e-27
3.63165e-25
-5.79422e-23
9.26451e-21
-1.53707e-18
2.82708e-16
-6.68314e-14
3.38332e-11
1.66563e-08
1.73709e-06
7.1595e-05
0.00129431
0.0100215
0.0320313
-3.31769e-42
6.88222e-40
-1.35761e-37
2.56913e-35
-4.66401e-33
8.13163e-31
-1.36531e-28
2.21908e-26
-3.52298e-24
5.54714e-22
-8.89341e-20
1.52293e-17
-3.07254e-15
9.53982e-13
2.53253e-09
3.74148e-07
1.99823e-05
0.000476801
0.00527
0.0252139
1.07465e-42
-2.26546e-40
4.53817e-38
-8.71197e-36
1.60216e-33
-2.82407e-31
4.77984e-29
-7.79721e-27
1.23412e-24
-1.91697e-22
2.97919e-20
-4.78997e-18
8.47517e-16
-1.87979e-13
7.64754e-11
3.31815e-08
3.12629e-06
0.000121581
0.00223889
0.0182598
2.19231e-44
-4.0126e-42
6.73745e-40
-1.02918e-37
1.37743e-35
-1.46269e-33
7.36562e-32
1.81777e-29
-7.94147e-27
2.05647e-24
-4.49149e-22
9.16977e-20
-1.87624e-17
4.18074e-15
-1.17274e-12
6.10529e-10
1.70398e-07
1.41594e-05
0.000569332
0.0113386
-9.15037e-44
1.94199e-41
-3.88373e-39
7.36712e-37
-1.32162e-34
2.23516e-32
-3.55219e-30
5.28778e-28
-7.35185e-26
9.52806e-24
-1.15081e-21
1.29886e-19
-1.37839e-17
1.38462e-15
-1.30226e-13
9.93392e-12
9.47137e-10
5.98388e-07
3.35832e-05
0.00227109
-1.24087e-42
2.77593e-40
-5.86767e-38
1.17935e-35
-2.24723e-33
4.04561e-31
-6.85311e-29
1.08713e-26
-1.60575e-24
2.19327e-22
-2.74719e-20
3.12325e-18
-3.18231e-16
2.86077e-14
-2.22556e-12
1.4638e-10
-7.92478e-09
3.46465e-07
-1.03908e-05
0.000365831
-1.45961e-42
3.39653e-40
-7.46466e-38
1.55815e-35
-3.07799e-33
5.72858e-31
-9.9897e-29
1.62109e-26
-2.42726e-24
3.31804e-22
-4.08701e-20
4.46351e-18
-4.23816e-16
3.41787e-14
-2.27832e-12
1.21738e-10
-5.03951e-09
1.55392e-07
-3.3685e-06
4.64286e-05
-5.38297e-43
1.29743e-40
-2.95229e-38
6.37439e-36
-1.30055e-33
2.49421e-31
-4.46629e-29
7.40469e-27
-1.12464e-24
1.54435e-22
-1.88642e-20
2.00964e-18
-1.82373e-16
1.37168e-14
-8.28686e-13
3.88207e-11
-1.3545e-09
3.34822e-08
-5.4185e-07
4.66226e-06
-8.22297e-44
2.04225e-41
-4.78856e-39
1.06493e-36
-2.23616e-34
4.40777e-32
-8.09507e-30
1.37211e-27
-2.12105e-25
2.94624e-23
-3.61133e-21
3.82181e-19
-3.40338e-17
2.47567e-15
-1.4221e-13
6.20669e-12
-1.96601e-10
4.2548e-09
-5.69492e-08
3.63518e-07
-5.49461e-45
1.39096e-42
-3.32504e-40
7.53846e-38
-1.61344e-35
3.24008e-33
-6.05738e-31
1.04376e-28
-1.63703e-26
2.30083e-24
-2.84341e-22
3.02028e-20
-2.68498e-18
1.93741e-16
-1.09581e-14
4.66685e-13
-1.42511e-11
2.91752e-10
-3.56492e-09
1.90882e-08
)
;

boundaryField
{
    x0
    {
        type            fixedValue;
        value           uniform 0;
    }
    x1
    {
        type            inletOutlet;
        inletValue      uniform 0.0357;
        value           nonuniform List<scalar> 10(0.0357 0.0357 0.0357 0.0357 0.00227109 0.000365831 4.64286e-05 4.66226e-06 3.63518e-07 1.90882e-08);
    }
    y0
    {
        type            zeroGradient;
    }
    y1
    {
        type            zeroGradient;
    }
    z0
    {
        type            empty;
    }
    z1
    {
        type            empty;
    }
}


// ************************************************************************* //
