/*--------------------------------*- C++ -*----------------------------------*\
  =========                 |
  \\      /  F ield         | OpenFOAM: The Open Source CFD Toolbox
   \\    /   O peration     | Website:  https://openfoam.org
    \\  /    A nd           | Version:  7
     \\/     M anipulation  |
\*---------------------------------------------------------------------------*/
FoamFile
{
    version     2.0;
    format      ascii;
    class       surfaceScalarField;
    location    "300000";
    object      phi;
}
// * * * * * * * * * * * * * * * * * * * * * * * * * * * * * * * * * * * * * //

dimensions      [0 3 -1 0 0 0 0];

internalField   nonuniform List<scalar> 
370
(
6.56113e-06
3.88696e-08
6.51845e-06
4.26792e-08
6.46778e-06
5.06733e-08
6.40414e-06
6.36395e-08
6.32128e-06
8.28571e-08
6.21105e-06
1.10228e-07
6.06258e-06
1.48472e-07
5.86116e-06
2.01418e-07
5.58674e-06
2.74426e-07
5.21172e-06
3.75021e-07
4.69783e-06
5.13885e-07
3.99133e-06
7.06502e-07
3.01517e-06
9.76163e-07
1.65507e-06
1.3601e-06
-2.68572e-07
1.92364e-06
-3.0654e-06
2.79683e-06
-7.32046e-06
4.25506e-06
-1.38829e-05
6.56245e-06
-2.1618e-05
7.73511e-06
1.9186e-06
6.56494e-06
7.39296e-08
6.52645e-06
8.11739e-08
6.48074e-06
9.63747e-08
6.42336e-06
1.21028e-07
6.34865e-06
1.57561e-07
6.2493e-06
2.09582e-07
6.11553e-06
2.82242e-07
5.93417e-06
3.82774e-07
5.68733e-06
5.21264e-07
5.35058e-06
7.11773e-07
4.89045e-06
9.74016e-07
4.26099e-06
1.33596e-06
3.3991e-06
1.83805e-06
2.21863e-06
2.54057e-06
6.05342e-07
3.53693e-06
-1.57585e-06
4.97802e-06
-4.42524e-06
7.10446e-06
-7.97811e-06
1.01153e-05
-1.27507e-05
1.25077e-05
6.63331e-06
6.57218e-06
1.01745e-07
6.54165e-06
1.11712e-07
6.5054e-06
1.32624e-07
6.45989e-06
1.66535e-07
6.40067e-06
2.16778e-07
6.32196e-06
2.88296e-07
6.21606e-06
3.8814e-07
6.07266e-06
5.26173e-07
5.87784e-06
7.16083e-07
5.61282e-06
9.7679e-07
5.25239e-06
1.33445e-06
4.76309e-06
1.82527e-06
4.10162e-06
2.49952e-06
3.21499e-06
3.42719e-06
2.04657e-06
4.70536e-06
5.58539e-07
6.46605e-06
-1.21303e-06
8.87602e-06
-3.16705e-06
1.20693e-05
-6.03741e-06
1.53781e-05
1.17795e-05
6.58215e-06
1.19594e-07
6.56256e-06
1.31305e-07
6.53931e-06
1.55874e-07
6.51013e-06
1.9571e-07
6.47219e-06
2.54719e-07
6.4218e-06
3.38686e-07
6.35409e-06
4.55848e-07
6.26257e-06
6.17697e-07
6.13855e-06
8.40105e-07
5.97048e-06
1.14486e-06
5.74321e-06
1.56172e-06
5.43734e-06
2.13113e-06
5.02929e-06
2.90758e-06
4.49316e-06
3.96332e-06
3.80727e-06
5.39125e-06
2.96966e-06
7.30366e-06
2.02665e-06
9.81902e-06
1.07704e-06
1.3019e-05
-2.59403e-07
1.67145e-05
1.70015e-05
6.59386e-06
1.25732e-07
6.58713e-06
1.38039e-07
6.57914e-06
1.63858e-07
6.56914e-06
2.05714e-07
6.55616e-06
2.67701e-07
6.53896e-06
3.55881e-07
6.51594e-06
4.78868e-07
6.48498e-06
6.48661e-07
6.4433e-06
8.81782e-07
6.38734e-06
1.20082e-06
6.31262e-06
1.63644e-06
6.2138e-06
2.22996e-06
6.08502e-06
3.03635e-06
5.92109e-06
4.12725e-06
5.71968e-06
5.59265e-06
5.48508e-06
7.53826e-06
5.23169e-06
1.00724e-05
4.97844e-06
1.32722e-05
4.57996e-06
1.7113e-05
2.06125e-05
6.60617e-06
1.19563e-07
6.61295e-06
1.31263e-07
6.621e-06
1.55804e-07
6.63113e-06
1.95585e-07
6.64434e-06
2.54491e-07
6.66195e-06
3.38269e-07
6.68574e-06
4.55083e-07
6.7181e-06
6.16297e-07
6.76234e-06
8.37544e-07
6.82296e-06
1.14019e-06
6.90615e-06
1.55325e-06
7.02019e-06
2.11592e-06
7.17592e-06
2.88062e-06
7.38649e-06
3.91669e-06
7.66528e-06
5.31385e-06
8.01924e-06
7.1843e-06
8.43182e-06
9.65983e-06
8.82701e-06
1.2877e-05
8.99433e-06
1.69457e-05
2.17288e-05
6.61787e-06
1.01696e-07
6.63749e-06
1.11643e-07
6.66078e-06
1.3251e-07
6.69003e-06
1.66332e-07
6.72812e-06
2.16409e-07
6.77876e-06
2.87621e-07
6.84695e-06
3.869e-07
6.93935e-06
5.23898e-07
7.06498e-06
7.11909e-07
7.23603e-06
9.69145e-07
7.46881e-06
1.32047e-06
7.7849e-06
1.79983e-06
8.21199e-06
2.45353e-06
8.78365e-06
3.34503e-06
9.53573e-06
4.56177e-06
1.04948e-05
6.22528e-06
1.16492e-05
8.50538e-06
1.28907e-05
1.16355e-05
1.39266e-05
1.59098e-05
2.15435e-05
6.62782e-06
7.38798e-08
6.65835e-06
8.11051e-08
6.6946e-06
9.62606e-08
6.74011e-06
1.20825e-07
6.79933e-06
1.57192e-07
6.87804e-06
2.08905e-07
6.98395e-06
2.80998e-07
7.12736e-06
3.80486e-07
7.32222e-06
5.1705e-07
7.58736e-06
7.04005e-07
7.94816e-06
9.59671e-07
8.4386e-06
1.30939e-06
9.10349e-06
1.78864e-06
1.00004e-05
2.44813e-06
1.11992e-05
3.36292e-06
1.27749e-05
4.64966e-06
1.47794e-05
6.50081e-06
1.71635e-05
9.25152e-06
1.95796e-05
1.34936e-05
2.0154e-05
6.63504e-06
3.88388e-08
6.67351e-06
4.26367e-08
6.71917e-06
5.06028e-08
6.77648e-06
6.3514e-08
6.85104e-06
8.26285e-08
6.95014e-06
1.09808e-07
7.08343e-06
1.47701e-07
7.26392e-06
1.99997e-07
7.50917e-06
2.718e-07
7.84302e-06
3.70154e-07
8.29788e-06
5.04813e-07
8.91785e-06
6.89426e-07
9.76298e-06
9.435e-07
1.09152e-05
1.29594e-06
1.2486e-05
1.79212e-06
1.4626e-05
2.50961e-06
1.75301e-05
3.59669e-06
2.14054e-05
5.37631e-06
2.62419e-05
8.65707e-06
1.57581e-05
6.63884e-06
6.68148e-06
6.73208e-06
6.79559e-06
6.87822e-06
6.98803e-06
7.13573e-06
7.33573e-06
7.60753e-06
7.97768e-06
8.48249e-06
9.17192e-06
1.01154e-05
1.14114e-05
1.32035e-05
1.57131e-05
1.93098e-05
2.46861e-05
3.33432e-05
)
;

boundaryField
{
    x0
    {
        type            calculated;
        value           nonuniform List<scalar> 10(-6.6e-06 -6.6e-06 -6.6e-06 -6.6e-06 -6.6e-06 -6.6e-06 -6.6e-06 -6.6e-06 -6.6e-06 -6.6e-06);
    }
    x1
    {
        type            calculated;
        value           nonuniform List<scalar> 10(-2.35366e-05 -1.74654e-05 -1.11836e-05 -5.4814e-06 9.689e-07 7.87804e-06 1.41119e-05 2.09691e-05 3.06378e-05 4.91013e-05);
    }
    y0
    {
        type            calculated;
        value           uniform 0;
    }
    y1
    {
        type            calculated;
        value           uniform 0;
    }
    z0
    {
        type            empty;
        value           nonuniform 0();
    }
    z1
    {
        type            empty;
        value           nonuniform 0();
    }
}


// ************************************************************************* //
