/*--------------------------------*- C++ -*----------------------------------*\
  =========                 |
  \\      /  F ield         | OpenFOAM: The Open Source CFD Toolbox
   \\    /   O peration     | Website:  https://openfoam.org
    \\  /    A nd           | Version:  7
     \\/     M anipulation  |
\*---------------------------------------------------------------------------*/
FoamFile
{
    version     2.0;
    format      ascii;
    class       volVectorField;
    location    "300000";
    object      Utheta;
}
// * * * * * * * * * * * * * * * * * * * * * * * * * * * * * * * * * * * * * //

dimensions      [0 1 -1 0 0 0 0];

internalField   nonuniform List<vector> 
200
(
(6.58057e-05 3.88696e-07 0)
(6.53979e-05 4.26792e-07 0)
(6.49311e-05 5.06733e-07 0)
(6.43596e-05 6.36395e-07 0)
(6.36271e-05 8.28571e-07 0)
(6.26617e-05 1.10228e-06 0)
(6.13682e-05 1.48472e-06 0)
(5.96187e-05 2.01418e-06 0)
(5.72395e-05 2.74426e-06 0)
(5.39923e-05 3.75021e-06 0)
(4.95478e-05 5.13885e-06 0)
(4.34458e-05 7.06502e-06 0)
(3.50325e-05 9.76163e-06 0)
(2.33512e-05 1.3601e-05 0)
(6.93251e-06 1.92364e-05 0)
(-1.66699e-05 2.79683e-05 0)
(-5.19293e-05 4.25506e-05 0)
(-0.000106017 6.56245e-05 0)
(-0.000177505 7.73511e-05 0)
(-0.000225773 1.9186e-05 0)
(6.58247e-05 5.63996e-07 0)
(6.54569e-05 6.19265e-07 0)
(6.50359e-05 7.3524e-07 0)
(6.45205e-05 9.23335e-07 0)
(6.386e-05 1.20209e-06 0)
(6.29897e-05 1.59905e-06 0)
(6.18241e-05 2.15357e-06 0)
(6.02485e-05 2.92096e-06 0)
(5.81075e-05 3.97845e-06 0)
(5.51896e-05 5.43397e-06 0)
(5.12052e-05 7.4395e-06 0)
(4.57572e-05 1.02123e-05 0)
(3.83005e-05 1.40711e-05 0)
(2.80887e-05 1.95033e-05 0)
(1.41199e-05 2.73029e-05 0)
(-4.85253e-06 3.88742e-05 0)
(-3.00054e-05 5.67976e-05 0)
(-6.20168e-05 8.33889e-05 0)
(-0.000103644 0.000101214 0)
(-0.000151081 4.27595e-05 0)
(6.58609e-05 8.78374e-07 0)
(6.55692e-05 9.6443e-07 0)
(6.52352e-05 1.14499e-06 0)
(6.48264e-05 1.43781e-06 0)
(6.43028e-05 1.87169e-06 0)
(6.36132e-05 2.48939e-06 0)
(6.26901e-05 3.35191e-06 0)
(6.14436e-05 4.54474e-06 0)
(5.97525e-05 6.18674e-06 0)
(5.74533e-05 8.44281e-06 0)
(5.43261e-05 1.15423e-05 0)
(5.00774e-05 1.58061e-05 0)
(4.43235e-05 2.16879e-05 0)
(3.65831e-05 2.98388e-05 0)
(2.63078e-05 4.12114e-05 0)
(1.30255e-05 5.72203e-05 0)
(-3.27244e-06 7.99024e-05 0)
(-2.19004e-05 0.000110923 0)
(-4.60223e-05 0.000139429 0)
(-8.6105e-05 9.2064e-05 0)
(6.59108e-05 1.1067e-06 0)
(6.57235e-05 1.21509e-06 0)
(6.55093e-05 1.44249e-06 0)
(6.52472e-05 1.81123e-06 0)
(6.49116e-05 2.35748e-06 0)
(6.447e-05 3.13491e-06 0)
(6.38795e-05 4.21994e-06 0)
(6.30833e-05 5.71935e-06 0)
(6.20056e-05 7.78094e-06 0)
(6.05452e-05 1.06082e-05 0)
(5.85685e-05 1.44808e-05 0)
(5.59028e-05 1.9782e-05 0)
(5.23332e-05 2.70355e-05 0)
(4.76122e-05 3.69526e-05 0)
(4.15021e-05 5.0483e-05 0)
(3.38846e-05 6.88485e-05 0)
(2.49816e-05 9.34752e-05 0)
(1.55185e-05 0.000125442 0)
(4.08818e-06 0.000160463 0)
(-2.8704e-05 0.000143905 0)
(6.59693e-05 1.22663e-06 0)
(6.59049e-05 1.34672e-06 0)
(6.58314e-05 1.59866e-06 0)
(6.57414e-05 2.00712e-06 0)
(6.56265e-05 2.6121e-06 0)
(6.54756e-05 3.47284e-06 0)
(6.52745e-05 4.67358e-06 0)
(6.50046e-05 6.33179e-06 0)
(6.46414e-05 8.60943e-06 0)
(6.41532e-05 1.17284e-05 0)
(6.34998e-05 1.59908e-05 0)
(6.26321e-05 2.18055e-05 0)
(6.14941e-05 2.97197e-05 0)
(6.00305e-05 4.04529e-05 0)
(5.82038e-05 5.49195e-05 0)
(5.60238e-05 7.42096e-05 0)
(5.35839e-05 9.94572e-05 0)
(5.10507e-05 0.000131456 0)
(4.7792e-05 0.000169138 0)
(2.77443e-05 0.00018807 0)
(6.60308e-05 1.22648e-06 0)
(6.60956e-05 1.34651e-06 0)
(6.61697e-05 1.59831e-06 0)
(6.62606e-05 2.00649e-06 0)
(6.63773e-05 2.61096e-06 0)
(6.65314e-05 3.47075e-06 0)
(6.67384e-05 4.66976e-06 0)
(6.70192e-05 6.32479e-06 0)
(6.74022e-05 8.59663e-06 0)
(6.79265e-05 1.1705e-05 0)
(6.86455e-05 1.59485e-05 0)
(6.96317e-05 2.17294e-05 0)
(7.09806e-05 2.95849e-05 0)
(7.2812e-05 4.02197e-05 0)
(7.52589e-05 5.45325e-05 0)
(7.84226e-05 7.36128e-05 0)
(8.22553e-05 9.86612e-05 0)
(8.62942e-05 0.000130746 0)
(8.91067e-05 0.000170293 0)
(8.43618e-05 0.000211707 0)
(6.60893e-05 1.1063e-06 0)
(6.62768e-05 1.21453e-06 0)
(6.64913e-05 1.44157e-06 0)
(6.67541e-05 1.80959e-06 0)
(6.70908e-05 2.3545e-06 0)
(6.75344e-05 3.12945e-06 0)
(6.81286e-05 4.20992e-06 0)
(6.89315e-05 5.70097e-06 0)
(7.00216e-05 7.74727e-06 0)
(7.15051e-05 1.05467e-05 0)
(7.35242e-05 1.43686e-05 0)
(7.62685e-05 1.95787e-05 0)
(7.99844e-05 2.66708e-05 0)
(8.49782e-05 3.63086e-05 0)
(9.15969e-05 4.93781e-05 0)
(0.000100152 6.70479e-05 0)
(0.00011072 9.08261e-05 0)
(0.000122699 0.000122563 0)
(0.000134086 0.000164277 0)
(0.000140192 0.000216362 0)
(6.61391e-05 8.77877e-07 0)
(6.64308e-05 9.63742e-07 0)
(6.67648e-05 1.14385e-06 0)
(6.71736e-05 1.43578e-06 0)
(6.76972e-05 1.868e-06 0)
(6.83869e-05 2.48263e-06 0)
(6.931e-05 3.33949e-06 0)
(7.05565e-05 4.52192e-06 0)
(7.22479e-05 6.1448e-06 0)
(7.45479e-05 8.36575e-06 0)
(7.76776e-05 1.14007e-05 0)
(8.19338e-05 1.55461e-05 0)
(8.77104e-05 2.12108e-05 0)
(9.55194e-05 2.89658e-05 0)
(0.000105998 3.96234e-05 0)
(0.000119871 5.43747e-05 0)
(0.000137771 7.5031e-05 0)
(0.000159714 0.000104435 0)
(0.000183715 0.000147017 0)
(0.000202744 0.000208488 0)
(6.61752e-05 5.63593e-07 0)
(6.65428e-05 6.18709e-07 0)
(6.69634e-05 7.34317e-07 0)
(6.74782e-05 9.21693e-07 0)
(6.81376e-05 1.1991e-06 0)
(6.90059e-05 1.59357e-06 0)
(7.01679e-05 2.14349e-06 0)
(7.17368e-05 2.90241e-06 0)
(7.38655e-05 3.94425e-06 0)
(7.6761e-05 5.3708e-06 0)
(8.07045e-05 7.32242e-06 0)
(8.60786e-05 9.99408e-06 0)
(9.34041e-05 1.36607e-05 0)
(0.000103391 1.87203e-05 0)
(0.000117006 2.57752e-05 0)
(0.00013556 3.57964e-05 0)
(0.000160781 5.04875e-05 0)
(0.000194678 7.31391e-05 0)
(0.000238236 0.000110753 0)
(0.000284398 0.000179561 0)
(6.61942e-05 3.88388e-07 0)
(6.66016e-05 4.26367e-07 0)
(6.70678e-05 5.06028e-07 0)
(6.76384e-05 6.3514e-07 0)
(6.83691e-05 8.26285e-07 0)
(6.93313e-05 1.09808e-06 0)
(7.06188e-05 1.47701e-06 0)
(7.23573e-05 1.99997e-06 0)
(7.47163e-05 2.718e-06 0)
(7.7926e-05 3.70154e-06 0)
(8.23009e-05 5.04813e-06 0)
(8.82721e-05 6.89426e-06 0)
(9.64367e-05 9.435e-06 0)
(0.000107634 1.29594e-05 0)
(0.000123074 1.79212e-05 0)
(0.000144583 2.50961e-05 0)
(0.000175114 3.59669e-05 0)
(0.000219979 5.37631e-05 0)
(0.000290146 8.65707e-05 0)
(0.000412222 0.000157581 0)
)
;

boundaryField
{
    x0
    {
        type            fixedValue;
        value           uniform (6.6e-05 0 0);
    }
    x1
    {
        type            zeroGradient;
    }
    y0
    {
        type            zeroGradient;
    }
    y1
    {
        type            zeroGradient;
    }
    z0
    {
        type            empty;
    }
    z1
    {
        type            empty;
    }
}


// ************************************************************************* //
