/*--------------------------------*- C++ -*----------------------------------*\
  =========                 |
  \\      /  F ield         | OpenFOAM: The Open Source CFD Toolbox
   \\    /   O peration     | Website:  https://openfoam.org
    \\  /    A nd           | Version:  7
     \\/     M anipulation  |
\*---------------------------------------------------------------------------*/
FoamFile
{
    version     2.0;
    format      ascii;
    class       volScalarField;
    location    "30000";
    object      C;
}
// * * * * * * * * * * * * * * * * * * * * * * * * * * * * * * * * * * * * * //

dimensions      [0 0 0 0 0 0 0];

internalField   nonuniform List<scalar> 
200
(
-8.69145e-61
1.71248e-57
-3.24028e-54
5.88941e-51
-1.02841e-47
1.72789e-44
-2.80275e-41
4.41678e-38
-6.83619e-35
1.05881e-31
-1.69575e-28
2.98746e-25
-6.63002e-22
2.87628e-18
1.70025e-14
1.89595e-11
8.40927e-09
1.70179e-06
0.000156492
0.00581365
-4.45737e-63
8.79758e-60
-1.66651e-56
3.02958e-53
-5.28379e-50
8.84707e-47
-1.42521e-43
2.21851e-40
-3.36283e-37
5.02986e-34
-7.59514e-31
1.20663e-27
-2.19183e-24
5.6613e-21
2.00464e-15
3.25467e-12
1.86858e-09
4.81456e-07
5.86789e-05
0.00327006
1.0163e-62
-2.00655e-59
3.79547e-56
-6.87612e-53
1.19226e-49
-1.97873e-46
3.14715e-43
-4.81122e-40
7.10964e-37
-1.02568e-33
1.46956e-30
-2.15511e-27
3.42188e-24
-6.63003e-21
2.22838e-17
1.80082e-13
2.03123e-10
8.88798e-08
1.80735e-05
0.0017688
5.60632e-64
-1.0879e-60
2.01386e-57
-3.5522e-54
5.95821e-51
-9.4862e-48
1.43142e-44
-2.04497e-41
2.765e-38
-3.54065e-35
4.30265e-32
-4.97984e-29
5.51002e-26
-5.7888e-23
5.16307e-20
4.90081e-17
2.6441e-12
4.44179e-09
2.59785e-06
0.000686936
-1.12153e-64
2.30237e-61
-4.51255e-58
8.43369e-55
-1.49959e-51
2.53086e-48
-4.04437e-45
6.10467e-42
-8.68281e-39
1.16109e-35
-1.45689e-32
1.7129e-29
-1.88601e-26
1.94628e-23
-1.88732e-20
1.72644e-17
-1.46765e-14
2.38422e-11
1.10571e-08
1.84807e-05
-2.03275e-64
4.34382e-61
-8.85518e-58
1.71933e-54
-3.17009e-51
5.53141e-48
-9.0969e-45
1.40333e-41
-2.01904e-38
2.69059e-35
-3.29317e-32
3.66416e-29
-3.65968e-26
3.23071e-23
-2.47383e-20
1.60654e-17
-8.61864e-15
3.70573e-12
-1.20004e-09
3.43651e-07
-2.53858e-65
5.63445e-62
-1.19201e-58
2.39887e-55
-4.57587e-52
8.23659e-49
-1.39136e-45
2.19075e-42
-3.18809e-39
4.24316e-36
-5.0982e-33
5.44205e-30
-5.06154e-27
4.00778e-24
-2.62951e-21
1.38617e-18
-5.67088e-16
1.72815e-13
-3.69412e-11
4.81545e-09
-9.85594e-67
2.26351e-63
-4.95188e-60
1.02957e-56
-2.02608e-53
3.75394e-50
-6.50521e-47
1.04554e-43
-1.54225e-40
2.06075e-37
-2.45435e-34
2.5548e-31
-2.27042e-28
1.67601e-25
-9.9595e-23
4.59795e-20
-1.58331e-17
3.86592e-15
-6.18504e-13
5.30193e-11
-1.58676e-68
3.75178e-65
-8.44885e-62
1.8076e-58
-3.65774e-55
6.96006e-52
-1.23617e-48
2.03014e-45
-3.04658e-42
4.1167e-39
-4.91923e-36
5.08646e-33
-4.43565e-30
3.16683e-27
-1.78941e-24
7.69896e-22
-2.4098e-19
5.17121e-17
-6.918e-15
4.57315e-13
-1.09486e-70
2.63721e-67
-6.05121e-64
1.31925e-60
-2.7202e-57
5.27277e-54
-9.53387e-51
1.5922e-47
-2.42563e-44
3.31925e-41
-4.00359e-38
4.16133e-35
-3.62961e-32
2.57674e-29
-1.43806e-26
6.0629e-24
-1.84072e-21
3.77331e-19
-4.69127e-17
2.71679e-15
)
;

boundaryField
{
    x0
    {
        type            fixedValue;
        value           uniform 0;
    }
    x1
    {
        type            inletOutlet;
        inletValue      uniform 0.0357;
        value           nonuniform List<scalar> 10(0.0357 0.0357 0.0357 0.0357 1.84807e-05 3.43651e-07 4.81545e-09 5.30193e-11 4.57315e-13 2.71679e-15);
    }
    y0
    {
        type            zeroGradient;
    }
    y1
    {
        type            zeroGradient;
    }
    z0
    {
        type            empty;
    }
    z1
    {
        type            empty;
    }
}


// ************************************************************************* //
