/*--------------------------------*- C++ -*----------------------------------*\
  =========                 |
  \\      /  F ield         | OpenFOAM: The Open Source CFD Toolbox
   \\    /   O peration     | Website:  https://openfoam.org
    \\  /    A nd           | Version:  7
     \\/     M anipulation  |
\*---------------------------------------------------------------------------*/
FoamFile
{
    version     2.0;
    format      ascii;
    class       volScalarField;
    location    "30000";
    object      C_0;
}
// * * * * * * * * * * * * * * * * * * * * * * * * * * * * * * * * * * * * * //

dimensions      [0 0 0 0 0 0 0];

internalField   nonuniform List<scalar> 
200
(
-8.35683e-61
1.64973e-57
-3.12759e-54
5.69559e-51
-9.965e-48
1.67753e-44
-2.72637e-41
4.3048e-38
-6.67589e-35
1.03601e-31
-1.66248e-28
2.9346e-25
-6.52549e-22
2.83646e-18
1.68009e-14
1.87721e-11
8.34281e-09
1.69174e-06
0.000155883
0.00580297
-4.27607e-63
8.45598e-60
-1.60489e-56
2.92321e-53
-5.10815e-50
8.56956e-47
-1.38318e-43
2.15729e-40
-3.27638e-37
4.9101e-34
-7.42872e-31
1.18248e-27
-2.15208e-24
5.56901e-21
1.98072e-15
3.22227e-12
1.85368e-09
4.78573e-07
5.84447e-05
0.00326357
9.77007e-63
-1.93268e-59
3.66278e-56
-6.64852e-53
1.15503e-49
-1.92063e-46
3.06066e-43
-4.68805e-40
6.94106e-37
-1.0033e-33
1.44029e-30
-2.11626e-27
3.36669e-24
-6.53568e-21
2.20087e-17
1.78262e-13
2.01481e-10
8.83399e-08
1.79998e-05
0.00176514
5.39165e-64
-1.04829e-60
1.94433e-57
-3.43631e-54
5.77522e-51
-9.21312e-48
1.39299e-44
-1.99407e-41
2.70166e-38
-3.46665e-35
4.22158e-32
-4.89662e-29
5.43048e-26
-5.72055e-23
5.1247e-20
4.77684e-17
2.62052e-12
4.41325e-09
2.58678e-06
0.00068542
-1.07625e-64
2.21367e-61
-4.34709e-58
8.14017e-55
-1.45021e-51
2.45227e-48
-3.92641e-45
5.93818e-42
-8.4625e-39
1.13384e-35
-1.42549e-32
1.67927e-29
-1.85263e-26
1.9156e-23
-1.86125e-20
1.706e-17
-1.45339e-14
2.36442e-11
1.09863e-08
1.8405e-05
-1.94698e-64
4.16852e-61
-8.51423e-58
1.65632e-54
-3.05983e-51
5.34937e-48
-8.81458e-45
1.36242e-41
-1.96401e-38
2.62236e-35
-3.21593e-32
3.58523e-29
-3.58787e-26
3.17354e-23
-2.43484e-20
1.58433e-17
-8.51631e-15
3.66897e-12
-1.1905e-09
3.41579e-07
-2.4268e-65
5.3967e-62
-1.14391e-58
2.30651e-55
-4.40819e-52
7.95013e-49
-1.34557e-45
2.12277e-42
-3.09517e-39
4.12751e-36
-4.96893e-33
5.31444e-30
-4.95254e-27
3.92916e-24
-2.58299e-21
1.36433e-18
-5.59253e-16
1.70764e-13
-3.65749e-11
4.77707e-09
-9.40395e-67
2.16385e-63
-4.74294e-60
9.8803e-57
-1.94808e-53
3.61639e-50
-6.27897e-47
1.01113e-43
-1.4944e-40
2.0007e-37
-2.38746e-34
2.49003e-31
-2.21718e-28
1.63992e-25
-9.76417e-23
4.51664e-20
-1.55837e-17
3.81253e-15
-6.11167e-13
5.24939e-11
-1.5111e-68
3.57973e-65
-8.07686e-62
1.73133e-58
-3.51016e-55
6.69211e-52
-1.19088e-48
1.95954e-45
-2.94634e-42
3.98898e-39
-4.77588e-36
4.94787e-33
-4.32322e-30
3.09259e-27
-1.75089e-24
7.54801e-22
-2.3672e-19
5.0898e-17
-6.82254e-15
4.519e-13
-1.04067e-70
2.51146e-67
-5.77369e-64
1.26116e-60
-2.60542e-57
5.06002e-54
-9.16684e-51
1.53386e-47
-2.34128e-44
3.21004e-41
-3.87939e-38
4.04008e-35
-3.53072e-32
2.51143e-29
-1.40436e-26
5.93243e-24
-1.80464e-21
3.70665e-19
-4.6175e-17
2.67939e-15
)
;

boundaryField
{
    x0
    {
        type            fixedValue;
        value           uniform 0;
    }
    x1
    {
        type            inletOutlet;
        inletValue      uniform 0.0357;
        value           nonuniform List<scalar> 10(0.0357 0.0357 0.0357 0.0357 1.8405e-05 3.41579e-07 4.77707e-09 5.24939e-11 4.519e-13 2.67939e-15);
    }
    y0
    {
        type            zeroGradient;
    }
    y1
    {
        type            zeroGradient;
    }
    z0
    {
        type            empty;
    }
    z1
    {
        type            empty;
    }
}


// ************************************************************************* //
