/*--------------------------------*- C++ -*----------------------------------*\
  =========                 |
  \\      /  F ield         | OpenFOAM: The Open Source CFD Toolbox
   \\    /   O peration     | Website:  https://openfoam.org
    \\  /    A nd           | Version:  7
     \\/     M anipulation  |
\*---------------------------------------------------------------------------*/
FoamFile
{
    version     2.0;
    format      ascii;
    class       volScalarField;
    location    "30000";
    object      h;
}
// * * * * * * * * * * * * * * * * * * * * * * * * * * * * * * * * * * * * * //

dimensions      [0 1 0 0 0 0 0];

internalField   nonuniform List<scalar> 
200
(
1.0254
1.02475
1.0241
1.02345
1.02281
1.02218
1.02155
1.02095
1.02036
1.0198
1.01928
1.0188
1.0184
1.01809
1.01791
1.01791
1.01816
1.01878
1.01996
1.02203
1.0254
1.02474
1.02409
1.02344
1.0228
1.02217
1.02154
1.02093
1.02033
1.01976
1.01923
1.01873
1.0183
1.01796
1.01773
1.01766
1.0178
1.01823
1.01905
1.02035
1.02539
1.02474
1.02408
1.02343
1.02278
1.02214
1.02151
1.02089
1.02028
1.01969
1.01913
1.0186
1.01813
1.01771
1.01739
1.01719
1.01714
1.01729
1.01768
1.01832
1.02538
1.02472
1.02407
1.02341
1.02276
1.02212
1.02147
1.02084
1.02021
1.0196
1.019
1.01842
1.01788
1.01738
1.01693
1.01656
1.01628
1.01612
1.01608
1.01615
1.02537
1.02471
1.02405
1.0234
1.02274
1.02208
1.02143
1.02078
1.02013
1.01948
1.01885
1.01822
1.01759
1.01699
1.0164
1.01584
1.01531
1.01481
1.01436
1.01393
1.02536
1.0247
1.02404
1.02337
1.02271
1.02205
1.02138
1.02071
1.02004
1.01937
1.01868
1.01799
1.01729
1.01658
1.01585
1.01509
1.0143
1.01347
1.0126
1.0117
1.02535
1.02469
1.02402
1.02336
1.02269
1.02201
1.02134
1.02065
1.01996
1.01925
1.01853
1.01778
1.01701
1.01619
1.01532
1.01437
1.01333
1.01217
1.01088
1.00948
1.02534
1.02467
1.02401
1.02334
1.02267
1.02199
1.0213
1.0206
1.01989
1.01916
1.0184
1.01761
1.01676
1.01586
1.01486
1.01374
1.01247
1.01099
1.00927
1.00731
1.02533
1.02467
1.024
1.02333
1.02265
1.02196
1.02127
1.02056
1.01984
1.01909
1.0183
1.01748
1.01659
1.01561
1.01452
1.01328
1.01182
1.01006
1.00792
1.00529
1.02533
1.02466
1.02399
1.02332
1.02264
1.02195
1.02126
1.02054
1.01981
1.01905
1.01825
1.01741
1.01649
1.01548
1.01434
1.01302
1.01145
1.00952
1.00705
1.00371
)
;

boundaryField
{
    x0
    {
        type            darcyGradPressure;
        gradient        nonuniform List<scalar> 10(0.00659999 0.00659999 0.00659999 0.00659999 0.00659999 0.00659999 0.00659999 0.00659999 0.00659999 0.00659999);
        value           nonuniform List<scalar> 10(1.02573 1.02573 1.02572 1.02571 1.0257 1.02569 1.02568 1.02567 1.02566 1.02566);
    }
    x1
    {
        type            codedFixedValue;
        value           nonuniform List<scalar> 10(1.02374 1.02124 1.01874 1.01624 1.01374 1.01125 1.00875 1.00625 1.00375 1.00125);
        name            sea;
        codeInclude     #{
          #include "fvCFD.H"
        #};
        code            #{
            const vector axis(0, 1, 0);
	    operator==(1.02499 - 0.02499*mag(this->patch().Cf() & axis));

        #};
        codeOptions     #{
          -I$(FOAM_CASE)/incl                 \
          -I$(LIB_SRC)/finiteVolume/lnInclude \
          -I$(LIB_SRC)/meshTools/lnInclude
        #};
        codeLibs        #{
          -lmeshTools \
          -lfiniteVolume
         #};
    }
    y0
    {
        type            zeroGradient;
    }
    y1
    {
        type            zeroGradient;
    }
    z0
    {
        type            empty;
    }
    z1
    {
        type            empty;
    }
}


// ************************************************************************* //
