/*--------------------------------*- C++ -*----------------------------------*\
  =========                 |
  \\      /  F ield         | OpenFOAM: The Open Source CFD Toolbox
   \\    /   O peration     | Website:  https://openfoam.org
    \\  /    A nd           | Version:  7
     \\/     M anipulation  |
\*---------------------------------------------------------------------------*/
FoamFile
{
    version     2.0;
    format      ascii;
    class       surfaceScalarField;
    location    "30000";
    object      phi;
}
// * * * * * * * * * * * * * * * * * * * * * * * * * * * * * * * * * * * * * //

dimensions      [0 3 -1 0 0 0 0];

internalField   nonuniform List<scalar> 
370
(
6.56163e-06
3.83661e-08
6.51951e-06
4.21222e-08
6.46951e-06
5.00025e-08
6.40673e-06
6.27793e-08
6.32502e-06
8.17053e-08
6.21639e-06
1.08638e-07
6.07016e-06
1.46226e-07
5.87199e-06
1.98173e-07
5.60236e-06
2.69626e-07
5.23464e-06
3.67724e-07
4.73223e-06
5.02412e-07
4.04452e-06
6.87702e-07
3.10078e-06
9.4374e-07
1.80025e-06
1.30054e-06
-5.19934e-09
1.80545e-06
-2.54514e-06
2.53994e-06
-6.20689e-06
3.66175e-06
-1.17288e-05
5.52194e-06
-2.06864e-05
8.95755e-06
1.36064e-05
6.56539e-06
7.29761e-08
6.52739e-06
8.01203e-08
6.48229e-06
9.51086e-08
6.42566e-06
1.19409e-07
6.35196e-06
1.55404e-07
6.25397e-06
2.06622e-07
6.12211e-06
2.78091e-07
5.94344e-06
3.7684e-07
5.70046e-06
5.12607e-07
5.36933e-06
6.98857e-07
4.91752e-06
9.54223e-07
4.30056e-06
1.30466e-06
3.45758e-06
1.78672e-06
2.30516e-06
2.45296e-06
7.29296e-07
3.38131e-06
-1.42333e-06
4.69257e-06
-4.34594e-06
6.58435e-06
-8.21866e-06
9.39466e-06
-1.29336e-05
1.36725e-05
1.85569e-05
6.57253e-06
1.00442e-07
6.54238e-06
1.10274e-07
6.50659e-06
1.30902e-07
6.46165e-06
1.64345e-07
6.40318e-06
2.13879e-07
6.32544e-06
2.84354e-07
6.22086e-06
3.82678e-07
6.07921e-06
5.18487e-07
5.88671e-06
7.05107e-07
5.62469e-06
9.60872e-07
5.26795e-06
1.31097e-06
4.78262e-06
1.78998e-06
4.12382e-06
2.44552e-06
3.2335e-06
3.34328e-06
2.04056e-06
4.57425e-06
4.68444e-07
6.26469e-06
-1.53542e-06
8.58822e-06
-3.91418e-06
1.17734e-05
-6.31239e-06
1.60707e-05
2.07899e-05
6.58237e-06
1.18075e-07
6.56301e-06
1.29633e-07
6.54003e-06
1.53881e-07
6.51118e-06
1.93191e-07
6.47365e-06
2.51412e-07
6.42377e-06
3.3424e-07
6.35667e-06
4.49778e-07
6.26583e-06
6.09324e-07
6.14247e-06
8.28462e-07
5.97479e-06
1.12856e-06
5.74697e-06
1.53879e-06
5.43816e-06
2.09878e-06
5.02158e-06
2.86211e-06
4.46447e-06
3.90039e-06
3.73099e-06
5.30773e-06
2.79197e-06
7.20371e-06
1.64981e-06
9.73039e-06
3.90294e-07
1.30329e-05
-7.4093e-07
1.72019e-05
2.1913e-05
6.59392e-06
1.2415e-07
6.58726e-06
1.36302e-07
6.57934e-06
1.61796e-07
6.5694e-06
2.03127e-07
6.55648e-06
2.64337e-07
6.5393e-06
3.51414e-07
6.51621e-06
4.72871e-07
6.48497e-06
6.40569e-07
6.44257e-06
8.70856e-07
6.38501e-06
1.18612e-06
6.30696e-06
1.61684e-06
6.20149e-06
2.20426e-06
6.05986e-06
3.00374e-06
5.87182e-06
4.08843e-06
5.62697e-06
5.55258e-06
5.31865e-06
7.51202e-06
4.95235e-06
1.00967e-05
4.56019e-06
1.34251e-05
4.21613e-06
1.7546e-05
2.23329e-05
6.60608e-06
1.18073e-07
6.61275e-06
1.2963e-07
6.62067e-06
1.53876e-07
6.63061e-06
1.93182e-07
6.64356e-06
2.51395e-07
6.66076e-06
3.34209e-07
6.68391e-06
4.49723e-07
6.71526e-06
6.09223e-07
6.75783e-06
8.28277e-07
6.81573e-06
1.12822e-06
6.89439e-06
1.53817e-06
7.00097e-06
2.09768e-06
7.14455e-06
2.86016e-06
7.33597e-06
3.89701e-06
7.58642e-06
5.30213e-06
7.90333e-06
7.19512e-06
8.28074e-06
9.71928e-06
8.68107e-06
1.30248e-05
9.00966e-06
1.72174e-05
2.22453e-05
6.61763e-06
1.00438e-07
6.637e-06
1.10269e-07
6.65998e-06
1.30894e-07
6.68883e-06
1.64331e-07
6.72637e-06
2.13852e-07
6.77627e-06
2.84306e-07
6.84341e-06
3.82588e-07
6.93431e-06
5.18323e-07
7.05778e-06
7.04806e-07
7.22568e-06
9.60321e-07
7.4539e-06
1.30996e-06
7.76344e-06
1.78815e-06
8.1814e-06
2.4422e-06
8.74108e-06
3.33733e-06
9.47941e-06
4.5638e-06
1.04275e-05
6.24703e-06
1.15862e-05
8.56057e-06
1.28737e-05
1.17373e-05
1.40377e-05
1.60534e-05
2.16962e-05
6.62747e-06
7.29725e-08
6.65762e-06
8.01153e-08
6.69341e-06
9.51003e-08
6.73835e-06
1.19395e-07
6.79682e-06
1.55377e-07
6.87456e-06
2.06573e-07
6.97914e-06
2.78001e-07
7.12079e-06
3.76675e-07
7.31329e-06
5.12303e-07
7.57532e-06
6.98297e-07
7.93209e-06
9.53189e-07
8.41749e-06
1.30274e-06
9.07653e-06
1.78316e-06
9.96756e-06
2.4463e-06
1.11626e-05
3.36873e-06
1.2741e-05
4.66863e-06
1.47629e-05
6.53871e-06
1.71898e-05
9.31032e-06
1.96805e-05
1.35627e-05
2.02025e-05
6.63461e-06
3.83639e-08
6.6726e-06
4.21192e-08
6.71771e-06
4.99974e-08
6.77433e-06
6.27702e-08
6.84802e-06
8.16888e-08
6.94599e-06
1.08608e-07
7.07782e-06
1.4617e-07
7.25642e-06
1.9807e-07
7.49929e-06
2.69437e-07
7.83021e-06
3.67373e-07
8.28164e-06
5.01759e-07
8.89791e-06
6.86476e-07
9.73967e-06
9.41401e-07
1.089e-05
1.29597e-06
1.24625e-05
1.79618e-06
1.46111e-05
2.52004e-06
1.75345e-05
3.61533e-06
2.14422e-05
5.40259e-06
2.63203e-05
8.68469e-06
1.57735e-05
6.63836e-06
6.68048e-06
6.73048e-06
6.79325e-06
6.87494e-06
6.98355e-06
7.12972e-06
7.32779e-06
7.59722e-06
7.9646e-06
8.46636e-06
9.15283e-06
1.00942e-05
1.13902e-05
1.31864e-05
1.57064e-05
1.93218e-05
2.47243e-05
3.3409e-05
)
;

boundaryField
{
    x0
    {
        type            calculated;
        value           nonuniform List<scalar> 10(-6.6e-06 -6.6e-06 -6.6e-06 -6.6e-06 -6.6e-06 -6.6e-06 -6.6e-06 -6.6e-06 -6.6e-06 -6.6e-06);
    }
    x1
    {
        type            calculated;
        value           nonuniform List<scalar> 10(-3.42932e-05 -1.78844e-05 -8.54545e-06 -1.86411e-06 3.79621e-06 9.09731e-06 1.45867e-05 2.11742e-05 3.07493e-05 4.91825e-05);
    }
    y0
    {
        type            calculated;
        value           uniform 0;
    }
    y1
    {
        type            calculated;
        value           uniform 0;
    }
    z0
    {
        type            empty;
        value           nonuniform 0();
    }
    z1
    {
        type            empty;
        value           nonuniform 0();
    }
}


// ************************************************************************* //
