/*--------------------------------*- C++ -*----------------------------------*\
  =========                 |
  \\      /  F ield         | OpenFOAM: The Open Source CFD Toolbox
   \\    /   O peration     | Website:  https://openfoam.org
    \\  /    A nd           | Version:  7
     \\/     M anipulation  |
\*---------------------------------------------------------------------------*/
FoamFile
{
    version     2.0;
    format      ascii;
    class       volVectorField;
    location    "30000";
    object      Utheta;
}
// * * * * * * * * * * * * * * * * * * * * * * * * * * * * * * * * * * * * * //

dimensions      [0 1 -1 0 0 0 0];

internalField   nonuniform List<vector> 
200
(
(6.58082e-05 3.83661e-07 0)
(6.54057e-05 4.21222e-07 0)
(6.49451e-05 5.00025e-07 0)
(6.43812e-05 6.27793e-07 0)
(6.36588e-05 8.17053e-07 0)
(6.27071e-05 1.08638e-06 0)
(6.14327e-05 1.46226e-06 0)
(5.97107e-05 1.98173e-06 0)
(5.73718e-05 2.69626e-06 0)
(5.4185e-05 3.67724e-06 0)
(4.98343e-05 5.02412e-06 0)
(4.38838e-05 6.87702e-06 0)
(3.57265e-05 9.4374e-06 0)
(2.45052e-05 1.30054e-05 0)
(8.97524e-06 1.80545e-05 0)
(-1.27517e-05 2.53994e-05 0)
(-4.37601e-05 3.66175e-05 0)
(-8.96785e-05 5.52194e-05 0)
(-0.000162076 8.95755e-05 0)
(-0.000274898 0.000136064 0)
(6.5827e-05 5.56711e-07 0)
(6.54639e-05 6.11213e-07 0)
(6.50484e-05 7.25555e-07 0)
(6.45397e-05 9.10943e-07 0)
(6.38881e-05 1.18555e-06 0)
(6.30297e-05 1.5763e-06 0)
(6.18804e-05 2.12158e-06 0)
(6.03277e-05 2.87506e-06 0)
(5.82195e-05 3.91117e-06 0)
(5.53489e-05 5.3329e-06 0)
(5.14342e-05 7.28318e-06 0)
(4.60904e-05 9.9618e-06 0)
(3.87907e-05 1.36523e-05 0)
(2.88137e-05 1.87675e-05 0)
(1.51723e-05 2.59338e-05 0)
(-3.47019e-06 3.61626e-05 0)
(-2.88463e-05 5.12305e-05 0)
(-6.2823e-05 7.4583e-05 0)
(-0.000105761 0.00011315 0)
(-0.00015409 0.000160817 0)
(6.58627e-05 8.67089e-07 0)
(6.55746e-05 9.51973e-07 0)
(6.52448e-05 1.13005e-06 0)
(6.48412e-05 1.41877e-06 0)
(6.43241e-05 1.84641e-06 0)
(6.36431e-05 2.45488e-06 0)
(6.27315e-05 3.30384e-06 0)
(6.15003e-05 4.47663e-06 0)
(5.98296e-05 6.08857e-06 0)
(5.7557e-05 8.29864e-06 0)
(5.44632e-05 1.13259e-05 0)
(5.02529e-05 1.54732e-05 0)
(4.45322e-05 2.11612e-05 0)
(3.67866e-05 2.89812e-05 0)
(2.63703e-05 3.97778e-05 0)
(1.2545e-05 5.47863e-05 0)
(-5.3349e-06 7.58628e-05 0)
(-2.7248e-05 0.00010584 0)
(-5.11328e-05 0.000148716 0)
(-7.42892e-05 0.000196734 0)
(6.59118e-05 1.09258e-06 0)
(6.57269e-05 1.19954e-06 0)
(6.55152e-05 1.42391e-06 0)
(6.52561e-05 1.78768e-06 0)
(6.49242e-05 2.32645e-06 0)
(6.44871e-05 3.09297e-06 0)
(6.39022e-05 4.16228e-06 0)
(6.31125e-05 5.63905e-06 0)
(6.20415e-05 7.66784e-06 0)
(6.05863e-05 1.04472e-05 0)
(5.86088e-05 1.42488e-05 0)
(5.59257e-05 1.94438e-05 0)
(5.22987e-05 2.65382e-05 0)
(4.74303e-05 3.62183e-05 0)
(4.09773e-05 4.94099e-05 0)
(3.26148e-05 6.7342e-05 0)
(2.22089e-05 9.1593e-05 0)
(1.02005e-05 0.000124032 0)
(-1.75318e-06 0.000166363 0)
(-1.30252e-05 0.000213514 0)
(6.59696e-05 1.21112e-06 0)
(6.59059e-05 1.32968e-06 0)
(6.5833e-05 1.57838e-06 0)
(6.57437e-05 1.98159e-06 0)
(6.56294e-05 2.57874e-06 0)
(6.54789e-05 3.42827e-06 0)
(6.52776e-05 4.61324e-06 0)
(6.50059e-05 6.24946e-06 0)
(6.46377e-05 8.49659e-06 0)
(6.41379e-05 1.15734e-05 0)
(6.34599e-05 1.57781e-05 0)
(6.25423e-05 2.15152e-05 0)
(6.13067e-05 2.93292e-05 0)
(5.96584e-05 3.99441e-05 0)
(5.74939e-05 5.43015e-05 0)
(5.47281e-05 7.35786e-05 0)
(5.1355e-05 9.91354e-05 0)
(4.75627e-05 0.00013229 0)
(4.38816e-05 0.000173739 0)
(4.00617e-05 0.000221229 0)
(6.60304e-05 1.21111e-06 0)
(6.60941e-05 1.32966e-06 0)
(6.61671e-05 1.57836e-06 0)
(6.62564e-05 1.98154e-06 0)
(6.63709e-05 2.57866e-06 0)
(6.65216e-05 3.42812e-06 0)
(6.67234e-05 4.61297e-06 0)
(6.69958e-05 6.24896e-06 0)
(6.73654e-05 8.49567e-06 0)
(6.78678e-05 1.15717e-05 0)
(6.85506e-05 1.57751e-05 0)
(6.94768e-05 2.15097e-05 0)
(7.07276e-05 2.93195e-05 0)
(7.24026e-05 3.99272e-05 0)
(7.46119e-05 5.42735e-05 0)
(7.74487e-05 7.35357e-05 0)
(8.09203e-05 9.90799e-05 0)
(8.4809e-05 0.000132249 0)
(8.84536e-05 0.000173817 0)
(9.05349e-05 0.000222891 0)
(6.60882e-05 1.09255e-06 0)
(6.62731e-05 1.1995e-06 0)
(6.64849e-05 1.42385e-06 0)
(6.6744e-05 1.78756e-06 0)
(6.7076e-05 2.32624e-06 0)
(6.75132e-05 3.09258e-06 0)
(6.80984e-05 4.16156e-06 0)
(6.88886e-05 5.63773e-06 0)
(6.99604e-05 7.66542e-06 0)
(7.14173e-05 1.04427e-05 0)
(7.33979e-05 1.42407e-05 0)
(7.60867e-05 1.94291e-05 0)
(7.97242e-05 2.65118e-05 0)
(8.46124e-05 3.61717e-05 0)
(9.11024e-05 4.93296e-05 0)
(9.95345e-05 6.72107e-05 0)
(0.000110068 9.13993e-05 0)
(0.000122299 0.00012381 0)
(0.000134557 0.000166354 0)
(0.000143122 0.000219707 0)
(6.61373e-05 8.67053e-07 0)
(6.64254e-05 9.51924e-07 0)
(6.67552e-05 1.12997e-06 0)
(6.71588e-05 1.41863e-06 0)
(6.76759e-05 1.84615e-06 0)
(6.83569e-05 2.45439e-06 0)
(6.92685e-05 3.30295e-06 0)
(7.04997e-05 4.47499e-06 0)
(7.21704e-05 6.08555e-06 0)
(7.44431e-05 8.29309e-06 0)
(7.7537e-05 1.13157e-05 0)
(8.17479e-05 1.54544e-05 0)
(8.74701e-05 2.11268e-05 0)
(9.52204e-05 2.89181e-05 0)
(0.000105651 3.96626e-05 0)
(0.000119518 5.45783e-05 0)
(0.00013752 7.54964e-05 0)
(0.000159764 0.000105238 0)
(0.000184352 0.000148081 0)
(0.000204274 0.000209494 0)
(6.6173e-05 5.56682e-07 0)
(6.65361e-05 6.11173e-07 0)
(6.69516e-05 7.25489e-07 0)
(6.74602e-05 9.10824e-07 0)
(6.81118e-05 1.18533e-06 0)
(6.897e-05 1.57591e-06 0)
(7.0119e-05 2.12086e-06 0)
(7.16712e-05 2.87372e-06 0)
(7.37785e-05 3.9087e-06 0)
(7.66475e-05 5.32835e-06 0)
(8.05593e-05 7.27474e-06 0)
(8.58977e-05 9.94609e-06 0)
(9.31879e-05 1.36228e-05 0)
(0.000103148 1.87113e-05 0)
(0.000116763 2.58245e-05 0)
(0.000135368 3.59433e-05 0)
(0.000160728 5.07702e-05 0)
(0.000194884 7.35646e-05 0)
(0.000238813 0.000111237 0)
(0.000285348 0.00017988 0)
(6.61918e-05 3.83639e-07 0)
(6.65942e-05 4.21192e-07 0)
(6.70548e-05 4.99974e-07 0)
(6.76187e-05 6.27702e-07 0)
(6.8341e-05 8.16888e-07 0)
(6.92924e-05 1.08608e-06 0)
(7.05663e-05 1.4617e-06 0)
(7.22875e-05 1.9807e-06 0)
(7.46251e-05 2.69437e-06 0)
(7.78091e-05 3.67373e-06 0)
(8.21548e-05 5.01759e-06 0)
(8.80959e-05 6.86476e-06 0)
(9.62353e-05 9.41401e-06 0)
(0.000107422 1.29597e-05 0)
(0.000122883 1.79618e-05 0)
(0.000144464 2.52004e-05 0)
(0.000175141 3.61533e-05 0)
(0.000220231 5.40259e-05 0)
(0.000290667 8.68469e-05 0)
(0.000412958 0.000157735 0)
)
;

boundaryField
{
    x0
    {
        type            fixedValue;
        value           uniform (6.6e-05 0 0);
    }
    x1
    {
        type            zeroGradient;
    }
    y0
    {
        type            zeroGradient;
    }
    y1
    {
        type            zeroGradient;
    }
    z0
    {
        type            empty;
    }
    z1
    {
        type            empty;
    }
}


// ************************************************************************* //
