/*--------------------------------*- C++ -*----------------------------------*\
  =========                 |
  \\      /  F ield         | OpenFOAM: The Open Source CFD Toolbox
   \\    /   O peration     | Website:  https://openfoam.org
    \\  /    A nd           | Version:  7
     \\/     M anipulation  |
\*---------------------------------------------------------------------------*/
FoamFile
{
    version     2.0;
    format      ascii;
    class       volScalarField;
    location    "390000";
    object      C;
}
// * * * * * * * * * * * * * * * * * * * * * * * * * * * * * * * * * * * * * //

dimensions      [0 0 0 0 0 0 0];

internalField   nonuniform List<scalar> 
200
(
-1.03692e-38
1.6491e-36
-2.48691e-34
3.59884e-32
-4.99923e-30
6.67773e-28
-8.6092e-26
1.07862e-23
-1.32877e-21
1.64232e-19
-2.11026e-17
3.01718e-15
-5.5955e-13
2.32293e-10
8.18951e-08
6.37084e-06
0.000195231
0.00258687
0.0146028
0.0354519
-7.96311e-40
1.278e-37
-1.94545e-35
2.84198e-33
-3.98434e-31
5.36736e-29
-6.96766e-27
8.76353e-25
-1.0779e-22
1.31712e-20
-1.64286e-18
2.19769e-16
-3.4908e-14
8.71508e-12
1.31112e-08
1.43492e-06
5.72074e-05
0.00101687
0.00827454
0.029262
2.13186e-40
-3.48594e-38
5.40278e-36
-8.02676e-34
1.14277e-31
-1.56005e-29
2.04606e-27
-2.5882e-25
3.17977e-23
-3.83924e-21
4.64751e-19
-5.83914e-17
8.1167e-15
-1.42826e-12
4.71811e-10
1.40929e-07
9.75405e-06
0.000281985
0.00383507
0.0223736
4.78399e-42
-6.90937e-40
9.21277e-38
-1.13562e-35
1.26675e-33
-1.22177e-31
8.89689e-30
-1.52393e-28
-1.11055e-25
3.04065e-23
-5.87559e-21
1.01625e-18
-1.73948e-16
3.24009e-14
-7.64555e-12
3.40339e-09
6.45373e-07
3.82037e-05
0.00111427
0.0153088
-2.47705e-41
4.03393e-39
-6.16106e-37
8.90407e-35
-1.2133e-32
1.55266e-30
-1.85793e-28
2.06937e-26
-2.13571e-24
2.03482e-22
-1.78742e-20
1.45339e-18
-1.10806e-16
8.07252e-15
-5.55202e-13
2.57651e-11
8.1773e-09
1.96578e-06
9.16587e-05
0.00374803
-3.84453e-40
6.63842e-38
-1.08004e-35
1.67049e-33
-2.44891e-31
3.39087e-29
-4.41654e-27
5.38506e-25
-6.11136e-23
6.41094e-21
-6.16447e-19
5.3776e-17
-4.20211e-15
2.89498e-13
-1.72417e-11
8.66662e-10
-3.57666e-08
1.19509e-06
-2.61364e-05
0.000763508
-5.80776e-40
1.04347e-37
-1.76603e-35
2.83855e-33
-4.31723e-31
6.1855e-29
-8.30227e-27
1.03676e-24
-1.19426e-22
1.25554e-20
-1.18888e-18
9.97604e-17
-7.27297e-15
4.49958e-13
-2.2986e-11
9.40135e-10
-2.97533e-08
7.007e-07
-1.15922e-05
0.000123796
-2.76763e-40
5.15008e-38
-9.02491e-36
1.5005e-33
-2.35717e-31
3.48018e-29
-4.79677e-27
6.11997e-25
-7.15123e-23
7.55245e-21
-7.09207e-19
5.80524e-17
-4.04541e-15
2.33475e-13
-1.08148e-11
3.88124e-10
-1.03656e-08
1.95957e-07
-2.42262e-06
1.5869e-05
-5.4673e-41
1.04816e-38
-1.89247e-36
3.24043e-34
-5.23828e-32
7.94768e-30
-1.1233e-27
1.46492e-25
-1.7418e-23
1.86031e-21
-1.75253e-19
1.42474e-17
-9.74087e-16
5.43662e-14
-2.39452e-12
8.00684e-11
-1.94122e-09
3.21068e-08
-3.27331e-07
1.57022e-06
-4.75932e-42
9.29764e-40
-1.71095e-37
2.9857e-35
-4.91769e-33
7.5984e-31
-1.0927e-28
1.44789e-26
-1.74563e-24
1.8852e-22
-1.78925e-20
1.45878e-18
-9.94752e-17
5.50191e-15
-2.38337e-13
7.76603e-12
-1.81176e-10
2.82623e-09
-2.61568e-08
1.03653e-07
)
;

boundaryField
{
    x0
    {
        type            fixedValue;
        value           uniform 0;
    }
    x1
    {
        type            inletOutlet;
        inletValue      uniform 0.0357;
        value           nonuniform List<scalar> 10(0.0357 0.0357 0.0357 0.0357 0.00374803 0.000763508 0.000123796 1.5869e-05 1.57022e-06 1.03653e-07);
    }
    y0
    {
        type            zeroGradient;
    }
    y1
    {
        type            zeroGradient;
    }
    z0
    {
        type            empty;
    }
    z1
    {
        type            empty;
    }
}


// ************************************************************************* //
