/*--------------------------------*- C++ -*----------------------------------*\
  =========                 |
  \\      /  F ield         | OpenFOAM: The Open Source CFD Toolbox
   \\    /   O peration     | Website:  https://openfoam.org
    \\  /    A nd           | Version:  7
     \\/     M anipulation  |
\*---------------------------------------------------------------------------*/
FoamFile
{
    version     2.0;
    format      ascii;
    class       volScalarField;
    location    "390000";
    object      C_0;
}
// * * * * * * * * * * * * * * * * * * * * * * * * * * * * * * * * * * * * * //

dimensions      [0 0 0 0 0 0 0];

internalField   nonuniform List<scalar> 
200
(
-1.03376e-38
1.64432e-36
-2.48009e-34
3.58952e-32
-4.98704e-30
6.66245e-28
-8.59082e-26
1.07648e-23
-1.32634e-21
1.63955e-19
-2.10703e-17
3.013e-15
-5.58853e-13
2.32028e-10
8.18184e-08
6.36599e-06
0.000195117
0.00258585
0.0145998
0.0354501
-7.93759e-40
1.2741e-37
-1.93981e-35
2.83416e-33
-3.97398e-31
5.3542e-29
-6.95163e-27
8.74468e-25
-1.07574e-22
1.31468e-20
-1.64005e-18
2.19425e-16
-3.48582e-14
8.70374e-12
1.30986e-08
1.43379e-06
5.71723e-05
0.00101643
0.00827243
0.0292597
2.12528e-40
-3.47568e-38
5.38769e-36
-8.00555e-34
1.13992e-31
-1.55639e-29
2.04157e-27
-2.58291e-25
3.17374e-23
-3.83252e-21
4.64005e-19
-5.83061e-17
8.10598e-15
-1.42657e-12
4.71306e-10
1.40809e-07
9.74755e-06
0.000281846
0.00383389
0.0223712
4.76866e-42
-6.88811e-40
9.18554e-38
-1.13238e-35
1.26324e-33
-1.2184e-31
8.87053e-30
-1.51195e-28
-1.10953e-25
3.03659e-23
-5.86753e-21
1.0149e-18
-1.7373e-16
3.23629e-14
-7.63725e-12
3.39997e-09
6.44869e-07
3.81814e-05
0.00111383
0.0153062
-2.46891e-41
4.02129e-39
-6.14273e-37
8.87901e-35
-1.21008e-32
1.5488e-30
-1.85362e-28
2.06494e-26
-2.13152e-24
2.03121e-22
-1.78461e-20
1.45142e-18
-1.1068e-16
8.06507e-15
-5.54806e-13
2.57579e-11
8.16767e-09
1.96442e-06
9.16045e-05
0.00374697
-3.83163e-40
6.61715e-38
-1.07675e-35
1.66565e-33
-2.44219e-31
3.38209e-29
-4.40579e-27
5.37278e-25
-6.09837e-23
6.3983e-21
-6.15328e-19
5.36868e-17
-4.19579e-15
2.89109e-13
-1.72212e-11
8.6577e-10
-3.57355e-08
1.19424e-06
-2.61229e-05
0.000763189
-5.78744e-40
1.03998e-37
-1.76039e-35
2.82991e-33
-4.30475e-31
6.16858e-29
-8.28082e-27
1.03424e-24
-1.19154e-22
1.25287e-20
-1.18654e-18
9.95795e-17
-7.26091e-15
4.49282e-13
-2.29551e-11
9.39018e-10
-2.97227e-08
7.0009e-07
-1.1584e-05
0.000123727
-2.75753e-40
5.13207e-38
-8.99473e-36
1.49571e-33
-2.35001e-31
3.47014e-29
-4.78366e-27
6.10418e-25
-7.13388e-23
7.53529e-21
-7.07705e-19
5.79384e-17
-4.03809e-15
2.33089e-13
-1.07987e-11
3.87604e-10
-1.03534e-08
1.95757e-07
-2.42052e-06
1.58578e-05
-5.44653e-41
1.04433e-38
-1.88585e-36
3.2296e-34
-5.22158e-32
7.92356e-30
-1.12006e-27
1.46093e-25
-1.73731e-23
1.8558e-21
-1.74856e-19
1.42173e-17
-9.7218e-16
5.42682e-14
-2.39058e-12
7.99492e-11
-1.93864e-09
3.20692e-08
-3.27e-07
1.5689e-06
-4.74051e-42
9.26229e-40
-1.70471e-37
2.97526e-35
-4.90126e-33
7.57417e-31
-1.08938e-28
1.44372e-26
-1.74087e-24
1.88035e-22
-1.78492e-20
1.45548e-18
-9.92655e-17
5.49117e-15
-2.37909e-13
7.75331e-12
-1.80908e-10
2.8225e-09
-2.61266e-08
1.03552e-07
)
;

boundaryField
{
    x0
    {
        type            fixedValue;
        value           uniform 0;
    }
    x1
    {
        type            inletOutlet;
        inletValue      uniform 0.0357;
        value           nonuniform List<scalar> 10(0.0357 0.0357 0.0357 0.0357 0.00374697 0.000763189 0.000123727 1.58578e-05 1.5689e-06 1.03552e-07);
    }
    y0
    {
        type            zeroGradient;
    }
    y1
    {
        type            zeroGradient;
    }
    z0
    {
        type            empty;
    }
    z1
    {
        type            empty;
    }
}


// ************************************************************************* //
