/*--------------------------------*- C++ -*----------------------------------*\
  =========                 |
  \\      /  F ield         | OpenFOAM: The Open Source CFD Toolbox
   \\    /   O peration     | Website:  https://openfoam.org
    \\  /    A nd           | Version:  7
     \\/     M anipulation  |
\*---------------------------------------------------------------------------*/
FoamFile
{
    version     2.0;
    format      ascii;
    class       surfaceScalarField;
    location    "390000";
    object      phi;
}
// * * * * * * * * * * * * * * * * * * * * * * * * * * * * * * * * * * * * * //

dimensions      [0 3 -1 0 0 0 0];

internalField   nonuniform List<scalar> 
370
(
6.56091e-06
3.90885e-08
6.51799e-06
4.29213e-08
6.46703e-06
5.0965e-08
6.40301e-06
6.40135e-08
6.31965e-06
8.33578e-08
6.20874e-06
1.10919e-07
6.05929e-06
1.49449e-07
5.85646e-06
2.02831e-07
5.57994e-06
2.76517e-07
5.20173e-06
3.78206e-07
4.68282e-06
5.18908e-07
3.96805e-06
7.14776e-07
2.97749e-06
9.90562e-07
1.59055e-06
1.38694e-06
-3.8762e-07
1.97817e-06
-3.30552e-06
2.9179e-06
-7.81436e-06
4.50885e-06
-1.45333e-05
6.71896e-06
-2.10881e-05
6.55481e-06
1.53337e-07
6.56474e-06
7.43441e-08
6.52603e-06
8.16319e-08
6.48007e-06
9.69251e-08
6.42236e-06
1.21731e-07
6.34722e-06
1.58499e-07
6.24727e-06
2.10869e-07
6.11267e-06
2.84047e-07
5.93014e-06
3.85356e-07
5.68163e-06
5.25032e-07
5.34243e-06
7.17399e-07
4.87869e-06
9.82648e-07
4.24383e-06
1.34963e-06
3.37387e-06
1.86053e-06
2.18181e-06
2.579e-06
5.54807e-07
3.60516e-06
-1.62899e-06
5.1017e-06
-4.43175e-06
7.31161e-06
-7.95299e-06
1.02402e-05
-1.28464e-05
1.14482e-05
4.17193e-06
6.57203e-06
1.02312e-07
6.54133e-06
1.12337e-07
6.50488e-06
1.33372e-07
6.45912e-06
1.67487e-07
6.39958e-06
2.18038e-07
6.32044e-06
2.9001e-07
6.21398e-06
3.90514e-07
6.06982e-06
5.29515e-07
5.87399e-06
7.20855e-07
5.60768e-06
9.8371e-07
5.24568e-06
1.34465e-06
4.75473e-06
1.84059e-06
4.09234e-06
2.52292e-06
3.20797e-06
3.46337e-06
2.05189e-06
4.76125e-06
6.0379e-07
6.54979e-06
-1.07219e-06
8.98759e-06
-2.96214e-06
1.21301e-05
-6.28912e-06
1.47752e-05
9.25321e-06
6.58206e-06
1.20255e-07
6.56236e-06
1.32032e-07
6.53899e-06
1.56741e-07
6.50968e-06
1.96806e-07
6.47156e-06
2.56156e-07
6.42095e-06
3.40619e-07
6.35298e-06
4.58486e-07
6.26116e-06
6.21335e-07
6.13685e-06
8.45163e-07
5.96863e-06
1.15193e-06
5.74161e-06
1.57166e-06
5.43706e-06
2.14513e-06
5.03278e-06
2.9272e-06
4.50586e-06
3.99029e-06
3.84048e-06
5.42663e-06
3.04517e-06
7.3451e-06
2.17874e-06
9.85403e-06
1.30263e-06
1.30063e-05
-3.55714e-07
1.64335e-05
1.51685e-05
6.59383e-06
1.2642e-07
6.58707e-06
1.38794e-07
6.57906e-06
1.64754e-07
6.56903e-06
2.06838e-07
6.55602e-06
2.69163e-07
6.53882e-06
3.57823e-07
6.51583e-06
4.81474e-07
6.48498e-06
6.52177e-07
6.44362e-06
8.86527e-07
6.38836e-06
1.2072e-06
6.31508e-06
1.64494e-06
6.21913e-06
2.24109e-06
6.09588e-06
3.05045e-06
5.94219e-06
4.14398e-06
5.75895e-06
5.60988e-06
5.55433e-06
7.54972e-06
5.34479e-06
1.00636e-05
5.13777e-06
1.32133e-05
4.62592e-06
1.69454e-05
1.97594e-05
6.60621e-06
1.20211e-07
6.61303e-06
1.31972e-07
6.62114e-06
1.56642e-07
6.63135e-06
1.9663e-07
6.64468e-06
2.55837e-07
6.66247e-06
3.40033e-07
6.68653e-06
4.57413e-07
6.71933e-06
6.1937e-07
6.76429e-06
8.41571e-07
6.8261e-06
1.14539e-06
6.91123e-06
1.5598e-06
7.02849e-06
2.12384e-06
7.18941e-06
2.88952e-06
7.40809e-06
3.9253e-06
7.69879e-06
5.31918e-06
8.06816e-06
7.18036e-06
8.49563e-06
9.63609e-06
8.8917e-06
1.28172e-05
8.99561e-06
1.68415e-05
2.1416e-05
6.61797e-06
1.02242e-07
6.6377e-06
1.1224e-07
6.66113e-06
1.33212e-07
6.69056e-06
1.67202e-07
6.72887e-06
2.1752e-07
6.77985e-06
2.89061e-07
6.84849e-06
3.88774e-07
6.94154e-06
5.26321e-07
7.06811e-06
7.14998e-07
7.24051e-06
9.72983e-07
7.47527e-06
1.32505e-06
7.79417e-06
1.80493e-06
8.22519e-06
2.45851e-06
8.80197e-06
3.34851e-06
9.55996e-06
4.56119e-06
1.05239e-05
6.21645e-06
1.16774e-05
8.48253e-06
1.29021e-05
1.15925e-05
1.38938e-05
1.58499e-05
2.14436e-05
6.62797e-06
7.42742e-08
6.65867e-06
8.15353e-08
6.69512e-06
9.6765e-08
6.74088e-06
1.21446e-07
6.80042e-06
1.5798e-07
6.87956e-06
2.09918e-07
6.98603e-06
2.823e-07
7.13021e-06
3.82143e-07
7.32609e-06
5.19115e-07
7.59259e-06
7.06491e-07
7.95514e-06
9.625e-07
8.44776e-06
1.31231e-06
9.11519e-06
1.79108e-06
1.00147e-05
2.44905e-06
1.12152e-05
3.36061e-06
1.27899e-05
4.64176e-06
1.47877e-05
6.48475e-06
1.71543e-05
9.22593e-06
1.95412e-05
1.34629e-05
2.01233e-05
6.63523e-06
3.90453e-08
6.6739e-06
4.28617e-08
6.7198e-06
5.0866e-08
6.77741e-06
6.38373e-08
6.85235e-06
8.3037e-08
6.95194e-06
1.1033e-07
7.08588e-06
1.48366e-07
7.26718e-06
2.00835e-07
7.51347e-06
2.72829e-07
7.84859e-06
3.71367e-07
8.30495e-06
5.06148e-07
8.92653e-06
6.90726e-07
9.77316e-06
9.44448e-07
1.09262e-05
1.29599e-06
1.24964e-05
1.79046e-06
1.46329e-05
2.50522e-06
1.7529e-05
3.58867e-06
2.13902e-05
5.36472e-06
2.62087e-05
8.64441e-06
1.57492e-05
6.63905e-06
6.68191e-06
6.73277e-06
6.79661e-06
6.87965e-06
6.98998e-06
7.13834e-06
7.33918e-06
7.61201e-06
7.98338e-06
8.48952e-06
9.18025e-06
1.01247e-05
1.14207e-05
1.32111e-05
1.57164e-05
1.9305e-05
2.46698e-05
3.33142e-05
)
;

boundaryField
{
    x0
    {
        type            calculated;
        value           nonuniform List<scalar> 10(-6.6e-06 -6.6e-06 -6.6e-06 -6.6e-06 -6.6e-06 -6.6e-06 -6.6e-06 -6.6e-06 -6.6e-06 -6.6e-06);
    }
    x1
    {
        type            calculated;
        value           nonuniform List<scalar> 10(-2.12415e-05 -1.6865e-05 -1.13704e-05 -6.27096e-06 3.49438e-08 7.33903e-06 1.38662e-05 2.08615e-05 3.05828e-05 4.90633e-05);
    }
    y0
    {
        type            calculated;
        value           uniform 0;
    }
    y1
    {
        type            calculated;
        value           uniform 0;
    }
    z0
    {
        type            empty;
        value           nonuniform 0();
    }
    z1
    {
        type            empty;
        value           nonuniform 0();
    }
}


// ************************************************************************* //
