/*--------------------------------*- C++ -*----------------------------------*\
  =========                 |
  \\      /  F ield         | OpenFOAM: The Open Source CFD Toolbox
   \\    /   O peration     | Website:  https://openfoam.org
    \\  /    A nd           | Version:  7
     \\/     M anipulation  |
\*---------------------------------------------------------------------------*/
FoamFile
{
    version     2.0;
    format      ascii;
    class       volVectorField;
    location    "390000";
    object      Utheta;
}
// * * * * * * * * * * * * * * * * * * * * * * * * * * * * * * * * * * * * * //

dimensions      [0 1 -1 0 0 0 0];

internalField   nonuniform List<vector> 
200
(
(6.58046e-05 3.90885e-07 0)
(6.53945e-05 4.29213e-07 0)
(6.49251e-05 5.0965e-07 0)
(6.43502e-05 6.40135e-07 0)
(6.36133e-05 8.33578e-07 0)
(6.26419e-05 1.10919e-06 0)
(6.13401e-05 1.49449e-06 0)
(5.95787e-05 2.02831e-06 0)
(5.7182e-05 2.76517e-06 0)
(5.39084e-05 3.78206e-06 0)
(4.94228e-05 5.18908e-06 0)
(4.32544e-05 7.14776e-06 0)
(3.47277e-05 9.90562e-06 0)
(2.28402e-05 1.38694e-05 0)
(6.01463e-06 1.97817e-05 0)
(-1.84657e-05 2.9179e-05 0)
(-5.55994e-05 4.50885e-05 0)
(-0.000111738 6.71896e-05 0)
(-0.000178107 6.55481e-05 0)
(-0.000211648 1.53337e-06 0)
(6.58237e-05 5.67163e-07 0)
(6.54539e-05 6.22766e-07 0)
(6.50305e-05 7.3945e-07 0)
(6.45121e-05 9.28723e-07 0)
(6.38479e-05 1.20928e-06 0)
(6.29724e-05 1.60894e-06 0)
(6.17997e-05 2.16748e-06 0)
(6.0214e-05 2.94093e-06 0)
(5.80588e-05 4.00774e-06 0)
(5.51203e-05 5.47802e-06 0)
(5.11056e-05 7.50778e-06 0)
(4.56126e-05 1.03221e-05 0)
(3.80885e-05 1.42555e-05 0)
(2.77784e-05 1.98297e-05 0)
(1.36831e-05 2.79167e-05 0)
(-5.37093e-06 4.0098e-05 0)
(-3.03037e-05 5.91023e-05 0)
(-6.19237e-05 8.47958e-05 0)
(-0.000103997 9.00152e-05 0)
(-0.000148557 2.16263e-05 0)
(6.58602e-05 8.8328e-07 0)
(6.55668e-05 9.69844e-07 0)
(6.5231e-05 1.15149e-06 0)
(6.482e-05 1.44609e-06 0)
(6.42935e-05 1.88268e-06 0)
(6.36001e-05 2.50439e-06 0)
(6.26721e-05 3.37281e-06 0)
(6.1419e-05 4.57436e-06 0)
(5.97191e-05 6.22943e-06 0)
(5.74084e-05 8.50554e-06 0)
(5.42668e-05 1.16365e-05 0)
(5.0002e-05 1.59511e-05 0)
(4.42353e-05 2.19173e-05 0)
(3.65016e-05 3.02118e-05 0)
(2.62993e-05 4.18321e-05 0)
(1.32784e-05 5.82575e-05 0)
(-2.34201e-06 8.1496e-05 0)
(-2.01716e-05 0.000111852 0)
(-4.62563e-05 0.000131117 0)
(-8.82976e-05 6.71257e-05 0)
(6.59103e-05 1.11283e-06 0)
(6.57221e-05 1.22184e-06 0)
(6.55068e-05 1.45057e-06 0)
(6.52433e-05 1.82146e-06 0)
(6.49062e-05 2.37097e-06 0)
(6.44625e-05 3.15314e-06 0)
(6.38696e-05 4.245e-06 0)
(6.30707e-05 5.75425e-06 0)
(6.199e-05 7.83009e-06 0)
(6.05274e-05 1.06782e-05 0)
(5.85512e-05 1.45816e-05 0)
(5.58934e-05 1.99286e-05 0)
(5.23492e-05 2.72506e-05 0)
(4.76932e-05 3.72683e-05 0)
(4.17317e-05 5.09394e-05 0)
(3.44283e-05 6.94745e-05 0)
(2.61195e-05 9.42081e-05 0)
(1.74068e-05 0.000125682 0)
(4.73456e-06 0.000156044 0)
(-3.31334e-05 0.000122108 0)
(6.59692e-05 1.23337e-06 0)
(6.59045e-05 1.35413e-06 0)
(6.58307e-05 1.60747e-06 0)
(6.57404e-05 2.01822e-06 0)
(6.56252e-05 2.6266e-06 0)
(6.54742e-05 3.49221e-06 0)
(6.52732e-05 4.6998e-06 0)
(6.50041e-05 6.36756e-06 0)
(6.4643e-05 8.65845e-06 0)
(6.41599e-05 1.17957e-05 0)
(6.35172e-05 1.6083e-05 0)
(6.26711e-05 2.19311e-05 0)
(6.1575e-05 2.98882e-05 0)
(6.01904e-05 4.06714e-05 0)
(5.85057e-05 5.51825e-05 0)
(5.65664e-05 7.44741e-05 0)
(5.44956e-05 9.95879e-05 0)
(5.24128e-05 0.000131098 0)
(4.88185e-05 0.000166895 0)
(2.33043e-05 0.00017464 0)
(6.6031e-05 1.23316e-06 0)
(6.60962e-05 1.35383e-06 0)
(6.61709e-05 1.60698e-06 0)
(6.62625e-05 2.01734e-06 0)
(6.63801e-05 2.625e-06 0)
(6.65357e-05 3.48928e-06 0)
(6.6745e-05 4.69444e-06 0)
(6.70293e-05 6.35774e-06 0)
(6.74181e-05 8.64049e-06 0)
(6.79519e-05 1.17629e-05 0)
(6.86867e-05 1.60237e-05 0)
(6.96986e-05 2.18246e-05 0)
(7.10895e-05 2.96999e-05 0)
(7.29875e-05 4.03464e-05 0)
(7.55344e-05 5.46453e-05 0)
(7.88347e-05 7.36504e-05 0)
(8.28189e-05 9.84982e-05 0)
(8.69366e-05 0.000130152 0)
(8.94366e-05 0.000168934 0)
(8.16732e-05 0.000205877 0)
(6.60898e-05 1.11227e-06 0)
(6.62784e-05 1.22106e-06 0)
(6.64942e-05 1.44927e-06 0)
(6.67584e-05 1.81916e-06 0)
(6.70972e-05 2.36678e-06 0)
(6.75436e-05 3.14547e-06 0)
(6.81417e-05 4.23094e-06 0)
(6.89501e-05 5.72846e-06 0)
(7.00482e-05 7.78284e-06 0)
(7.15431e-05 1.05919e-05 0)
(7.35789e-05 1.44243e-05 0)
(7.63472e-05 1.96438e-05 0)
(8.00968e-05 2.67402e-05 0)
(8.51358e-05 3.63691e-05 0)
(9.18097e-05 4.94019e-05 0)
(0.000100419 6.69841e-05 0)
(0.000111006 9.05931e-05 0)
(0.000122898 0.000122048 0)
(0.000133979 0.000163457 0)
(0.0001388 0.000214298 0)
(6.61398e-05 8.82581e-07 0)
(6.64332e-05 9.68879e-07 0)
(6.6769e-05 1.14989e-06 0)
(6.718e-05 1.44324e-06 0)
(6.77065e-05 1.8775e-06 0)
(6.83999e-05 2.4949e-06 0)
(6.9328e-05 3.35537e-06 0)
(7.05812e-05 4.54232e-06 0)
(7.22815e-05 6.17056e-06 0)
(7.45934e-05 8.39737e-06 0)
(7.77386e-05 1.14378e-05 0)
(8.20145e-05 1.55862e-05 0)
(8.78147e-05 2.12479e-05 0)
(9.56492e-05 2.89878e-05 0)
(0.000106149 3.9609e-05 0)
(0.000120026 5.42911e-05 0)
(0.000137888 7.48364e-05 0)
(0.00015971 0.000104092 0)
(0.000183478 0.000146564 0)
(0.000202014 0.000207834 0)
(6.61761e-05 5.66598e-07 0)
(6.65457e-05 6.21985e-07 0)
(6.69685e-05 7.38155e-07 0)
(6.74861e-05 9.26417e-07 0)
(6.81488e-05 1.20509e-06 0)
(6.90215e-05 1.60124e-06 0)
(7.01891e-05 2.15333e-06 0)
(7.17653e-05 2.91489e-06 0)
(7.39033e-05 3.95972e-06 0)
(7.68103e-05 5.38929e-06 0)
(8.07677e-05 7.34324e-06 0)
(8.61574e-05 1.00152e-05 0)
(9.34984e-05 1.36776e-05 0)
(0.000103497 1.87252e-05 0)
(0.000117113 2.57553e-05 0)
(0.000135646 3.57349e-05 0)
(0.000160809 5.03671e-05 0)
(0.000194596 7.29532e-05 0)
(0.000237994 0.000110537 0)
(0.000283957 0.000179362 0)
(6.61952e-05 3.90453e-07 0)
(6.66048e-05 4.28617e-07 0)
(6.70734e-05 5.0866e-07 0)
(6.76469e-05 6.38373e-07 0)
(6.83813e-05 8.3037e-07 0)
(6.93481e-05 1.1033e-06 0)
(7.06416e-05 1.48366e-06 0)
(7.23876e-05 2.00835e-06 0)
(7.47559e-05 2.72829e-06 0)
(7.79769e-05 3.71367e-06 0)
(8.23645e-05 5.06148e-06 0)
(8.83489e-05 6.90726e-06 0)
(9.65247e-05 9.44448e-06 0)
(0.000107727 1.29599e-05 0)
(0.000123159 1.79046e-05 0)
(0.000144638 2.50522e-05 0)
(0.000175107 3.58867e-05 0)
(0.000219874 5.36472e-05 0)
(0.00028992 8.64441e-05 0)
(0.000411888 0.000157492 0)
)
;

boundaryField
{
    x0
    {
        type            fixedValue;
        value           uniform (6.6e-05 0 0);
    }
    x1
    {
        type            zeroGradient;
    }
    y0
    {
        type            zeroGradient;
    }
    y1
    {
        type            zeroGradient;
    }
    z0
    {
        type            empty;
    }
    z1
    {
        type            empty;
    }
}


// ************************************************************************* //
