/*--------------------------------*- C++ -*----------------------------------*\
  =========                 |
  \\      /  F ield         | OpenFOAM: The Open Source CFD Toolbox
   \\    /   O peration     | Website:  https://openfoam.org
    \\  /    A nd           | Version:  7
     \\/     M anipulation  |
\*---------------------------------------------------------------------------*/
FoamFile
{
    version     2.0;
    format      ascii;
    class       volScalarField;
    location    "210000";
    object      C;
}
// * * * * * * * * * * * * * * * * * * * * * * * * * * * * * * * * * * * * * //

dimensions      [0 0 0 0 0 0 0];

internalField   nonuniform List<scalar> 
200
(
-4.76661e-44
1.39372e-41
-3.88574e-39
1.03935e-36
-2.66778e-34
6.5816e-32
-1.5662e-29
3.61854e-27
-8.20913e-25
1.86438e-22
-4.38557e-20
1.13969e-17
-3.77529e-15
2.58008e-12
1.94301e-09
2.97518e-07
1.80447e-05
0.000486827
0.00570197
0.0267446
-1.93222e-45
5.68565e-43
-1.59508e-40
4.29154e-38
-1.1072e-35
2.74195e-33
-6.53476e-31
1.50622e-28
-3.38686e-26
7.53971e-24
-1.70447e-21
4.09782e-19
-1.15131e-16
4.87413e-14
2.76769e-10
6.0531e-08
4.74948e-06
0.000166728
0.00273828
0.0197037
8.07788e-46
-2.40705e-43
6.83258e-41
-1.85797e-38
4.83791e-36
-1.20678e-33
2.8885e-31
-6.65783e-29
1.48728e-26
-3.25561e-24
7.11464e-22
-1.60336e-19
3.95625e-17
-1.21281e-14
6.68142e-12
4.74616e-09
6.72162e-07
3.87137e-05
0.00105607
0.0132719
1.8601e-47
-4.92135e-45
1.2065e-42
-2.72508e-40
5.54238e-38
-9.66584e-36
1.24651e-33
-2.48047e-32
-5.64485e-29
2.64197e-26
-8.83251e-24
2.61759e-21
-7.55047e-19
2.31769e-16
-8.7488e-14
5.93879e-11
2.82401e-08
3.73019e-06
0.000230884
0.00728124
-4.81834e-47
1.46134e-44
-4.19494e-42
1.14445e-39
-2.95974e-37
7.23666e-35
-1.66832e-32
3.61689e-30
-7.35657e-28
1.40122e-25
-2.49721e-23
4.16625e-21
-6.5198e-19
9.58705e-17
-1.31532e-14
1.57337e-12
-1.52328e-11
1.17731e-07
8.84426e-06
0.00109812
-5.12541e-46
1.6298e-43
-4.91049e-41
1.40704e-38
-3.82291e-36
9.81517e-34
-2.37171e-31
5.36801e-29
-1.13155e-26
2.20627e-24
-3.94577e-22
6.40676e-20
-9.3259e-18
1.19819e-15
-1.33311e-13
1.25544e-11
-9.74806e-10
6.09747e-08
-2.71574e-06
0.000128054
-4.2695e-46
1.41195e-43
-4.42154e-41
1.3152e-38
-3.70269e-36
9.82232e-34
-2.44171e-31
5.6493e-29
-1.20624e-26
2.35198e-24
-4.13356e-22
6.44363e-20
-8.73736e-18
1.00687e-15
-9.59759e-14
7.33922e-12
-4.35122e-10
1.92233e-08
-5.97103e-07
1.16337e-05
-1.10977e-46
3.80167e-44
-1.23261e-41
3.79253e-39
-1.10278e-36
3.01452e-34
-7.69528e-32
1.81909e-29
-3.94032e-27
7.71879e-25
-1.34547e-22
2.04626e-20
-2.65226e-18
2.85066e-16
-2.46244e-14
1.65027e-12
-8.24143e-11
2.91707e-09
-6.76369e-08
8.36358e-07
-1.19433e-47
4.21646e-45
-1.40885e-42
4.4653e-40
-1.33649e-37
3.75559e-35
-9.8346e-33
2.37737e-30
-5.24252e-28
1.03914e-25
-1.81821e-23
2.74787e-21
-3.49608e-19
3.6351e-17
-2.98626e-15
1.86494e-13
-8.45851e-12
2.62414e-10
-5.04909e-09
4.69086e-08
-5.58135e-49
2.00899e-46
-6.84526e-44
2.21248e-41
-6.75196e-39
1.93378e-36
-5.15719e-34
1.26804e-31
-2.8388e-29
5.69746e-27
-1.00588e-24
1.52717e-22
-1.94157e-20
2.00477e-18
-1.62371e-16
9.91038e-15
-4.34257e-13
1.27858e-11
-2.25908e-10
1.78685e-09
)
;

boundaryField
{
    x0
    {
        type            fixedValue;
        value           uniform 0;
    }
    x1
    {
        type            inletOutlet;
        inletValue      uniform 0.0357;
        value           nonuniform List<scalar> 10(0.0357 0.0357 0.0357 0.0357 0.00109812 0.000128054 1.16337e-05 8.36358e-07 4.69086e-08 1.78685e-09);
    }
    y0
    {
        type            zeroGradient;
    }
    y1
    {
        type            zeroGradient;
    }
    z0
    {
        type            empty;
    }
    z1
    {
        type            empty;
    }
}


// ************************************************************************* //
