/*--------------------------------*- C++ -*----------------------------------*\
  =========                 |
  \\      /  F ield         | OpenFOAM: The Open Source CFD Toolbox
   \\    /   O peration     | Website:  https://openfoam.org
    \\  /    A nd           | Version:  7
     \\/     M anipulation  |
\*---------------------------------------------------------------------------*/
FoamFile
{
    version     2.0;
    format      ascii;
    class       volScalarField;
    location    "210000";
    object      C_0;
}
// * * * * * * * * * * * * * * * * * * * * * * * * * * * * * * * * * * * * * //

dimensions      [0 0 0 0 0 0 0];

internalField   nonuniform List<scalar> 
200
(
-4.73963e-44
1.38622e-41
-3.86593e-39
1.03434e-36
-2.65569e-34
6.55361e-32
-1.55998e-29
3.60519e-27
-8.18115e-25
1.85855e-22
-4.37309e-20
1.13676e-17
-3.76662e-15
2.57481e-12
1.93968e-09
2.97097e-07
1.80247e-05
0.000486439
0.00569928
0.0267403
-1.92072e-45
5.65338e-43
-1.58647e-40
4.26959e-38
-1.10185e-35
2.72946e-33
-6.50683e-31
1.50021e-28
-3.37428e-26
7.51378e-24
-1.69908e-21
4.08598e-19
-1.14829e-16
4.86258e-14
2.76281e-10
6.04429e-08
4.744e-06
0.000166586
0.0027368
0.0196994
8.03144e-46
-2.39388e-43
6.79708e-41
-1.84884e-38
4.81547e-36
-1.20151e-33
2.8767e-31
-6.63247e-29
1.48203e-26
-3.245e-24
7.0934e-22
-1.59901e-19
3.94657e-17
-1.21016e-14
6.66848e-12
4.73881e-09
6.71338e-07
3.86783e-05
0.00105543
0.0132683
1.84971e-47
-4.89535e-45
1.20051e-42
-2.71245e-40
5.5187e-38
-9.62881e-36
1.24265e-33
-2.49935e-32
-5.61864e-29
2.63202e-26
-8.80326e-24
2.60985e-21
-7.53051e-19
2.31222e-16
-8.73044e-14
5.92772e-11
2.81996e-08
3.72624e-06
0.000230718
0.00727858
-4.78937e-47
1.45297e-44
-4.17211e-42
1.13855e-39
-2.94534e-37
7.20355e-35
-1.66117e-32
3.60246e-30
-7.32942e-28
1.39647e-25
-2.48949e-23
4.15462e-21
-6.50355e-19
9.566e-17
-1.31282e-14
1.57089e-12
-1.53144e-11
1.17578e-07
8.83494e-06
0.00109747
-5.09349e-46
1.62011e-43
-4.88267e-41
1.39946e-38
-3.80342e-36
9.76788e-34
-2.36096e-31
5.34519e-29
-1.12706e-26
2.19814e-24
-3.93235e-22
6.38679e-20
-9.29948e-18
1.19513e-15
-1.33009e-13
1.25296e-11
-9.73157e-10
6.08889e-08
-2.71275e-06
0.000127944
-4.24173e-46
1.40316e-43
-4.39527e-41
1.30776e-38
-3.68277e-36
9.77227e-34
-2.42996e-31
5.62371e-29
-1.20111e-26
2.34265e-24
-4.11834e-22
6.42174e-20
-8.71015e-18
1.00402e-15
-9.57318e-14
7.32265e-12
-4.34263e-10
1.91909e-08
-5.96266e-07
1.16206e-05
-1.10224e-46
3.77694e-44
-1.22495e-41
3.77e-39
-1.09654e-36
2.99832e-34
-7.65609e-32
1.81034e-29
-3.92248e-27
7.68603e-25
-1.34014e-22
2.03874e-20
-2.64326e-18
2.8418e-16
-2.45549e-14
1.64608e-12
-8.22286e-11
2.91134e-09
-6.75232e-08
8.35193e-07
-1.18589e-47
4.18786e-45
-1.39969e-42
4.43754e-40
-1.32855e-37
3.73435e-35
-9.78177e-33
2.36527e-30
-5.21732e-28
1.03444e-25
-1.8105e-23
2.737e-21
-3.48324e-19
3.62279e-17
-2.977e-15
1.85969e-13
-8.43711e-12
2.61825e-10
-5.03921e-09
4.68307e-08
-5.54035e-49
1.99479e-46
-6.79882e-44
2.19809e-41
-6.70996e-39
1.92229e-36
-5.12803e-34
1.26123e-31
-2.82435e-29
5.67009e-27
-1.00134e-24
1.5207e-22
-1.93389e-20
1.99742e-18
-1.61822e-16
9.87972e-15
-4.33038e-13
1.27536e-11
-2.25405e-10
1.78341e-09
)
;

boundaryField
{
    x0
    {
        type            fixedValue;
        value           uniform 0;
    }
    x1
    {
        type            inletOutlet;
        inletValue      uniform 0.0357;
        value           nonuniform List<scalar> 10(0.0357 0.0357 0.0357 0.0357 0.00109747 0.000127944 1.16206e-05 8.35193e-07 4.68307e-08 1.78341e-09);
    }
    y0
    {
        type            zeroGradient;
    }
    y1
    {
        type            zeroGradient;
    }
    z0
    {
        type            empty;
    }
    z1
    {
        type            empty;
    }
}


// ************************************************************************* //
