/*--------------------------------*- C++ -*----------------------------------*\
  =========                 |
  \\      /  F ield         | OpenFOAM: The Open Source CFD Toolbox
   \\    /   O peration     | Website:  https://openfoam.org
    \\  /    A nd           | Version:  7
     \\/     M anipulation  |
\*---------------------------------------------------------------------------*/
FoamFile
{
    version     2.0;
    format      ascii;
    class       surfaceScalarField;
    location    "210000";
    object      phi;
}
// * * * * * * * * * * * * * * * * * * * * * * * * * * * * * * * * * * * * * //

dimensions      [0 3 -1 0 0 0 0];

internalField   nonuniform List<scalar> 
370
(
6.56133e-06
3.86739e-08
6.51886e-06
4.24627e-08
6.46845e-06
5.04126e-08
6.40515e-06
6.33052e-08
6.32274e-06
8.24095e-08
6.21313e-06
1.0961e-07
6.06553e-06
1.47599e-07
5.86537e-06
2.00157e-07
5.59281e-06
2.72561e-07
5.22062e-06
3.72186e-07
4.7112e-06
5.09425e-07
4.01201e-06
6.99184e-07
3.04851e-06
9.63507e-07
1.71178e-06
1.33673e-06
-1.65063e-07
1.87684e-06
-2.85902e-06
2.69396e-06
-6.88237e-06
4.02335e-06
-1.31593e-05
6.27689e-06
-2.18295e-05
8.67019e-06
4.53554e-06
6.56511e-06
7.35589e-08
6.52681e-06
8.07643e-08
6.48134e-06
9.58825e-08
6.42425e-06
1.20399e-07
6.34994e-06
1.56723e-07
6.25112e-06
2.08432e-07
6.11809e-06
2.80629e-07
5.93777e-06
3.80469e-07
5.69243e-06
5.17902e-07
5.35786e-06
7.06757e-07
4.90096e-06
9.6633e-07
4.27634e-06
1.3238e-06
3.42173e-06
1.81812e-06
2.2519e-06
2.50655e-06
6.52174e-07
3.47657e-06
-1.52178e-06
4.86791e-06
-4.40824e-06
6.90981e-06
-8.04189e-06
9.91054e-06
-1.26628e-05
1.32911e-05
9.83661e-06
6.57232e-06
1.01239e-07
6.54193e-06
1.11153e-07
6.50586e-06
1.31955e-07
6.46057e-06
1.65684e-07
6.40165e-06
2.15651e-07
6.32331e-06
2.86764e-07
6.21792e-06
3.86017e-07
6.07521e-06
5.23187e-07
5.88129e-06
7.1182e-07
5.61744e-06
9.7061e-07
5.25843e-06
1.32533e-06
4.77065e-06
1.81158e-06
4.11016e-06
2.47861e-06
3.22193e-06
3.39478e-06
2.04353e-06
4.65497e-06
5.21995e-07
6.38945e-06
-1.33757e-06
8.76938e-06
-3.40589e-06
1.19789e-05
-5.90584e-06
1.5791e-05
1.46652e-05
6.58223e-06
1.19004e-07
6.56273e-06
1.30655e-07
6.53959e-06
1.55099e-07
6.51054e-06
1.94731e-07
6.47276e-06
2.53433e-07
6.42257e-06
3.36958e-07
6.35509e-06
4.53489e-07
6.26384e-06
6.14443e-07
6.14008e-06
8.35581e-07
5.97216e-06
1.13853e-06
5.74468e-06
1.55282e-06
5.43768e-06
2.11858e-06
5.02632e-06
2.88996e-06
4.48212e-06
3.93899e-06
3.77802e-06
5.35906e-06
2.90217e-06
7.26531e-06
1.88651e-06
9.78504e-06
8.416e-07
1.30238e-05
-2.90367e-07
1.6923e-05
1.88426e-05
6.59389e-06
1.25117e-07
6.58718e-06
1.37364e-07
6.57922e-06
1.63056e-07
6.56924e-06
2.04708e-07
6.55628e-06
2.66393e-07
6.5391e-06
3.54144e-07
6.51605e-06
4.76537e-07
6.48498e-06
6.45515e-07
6.44302e-06
8.77534e-07
6.38645e-06
1.1951e-06
6.31045e-06
1.62882e-06
6.20906e-06
2.21997e-06
6.07535e-06
3.02368e-06
5.90219e-06
4.11215e-06
5.68427e-06
5.57698e-06
5.42191e-06
7.52766e-06
5.12657e-06
1.00804e-05
4.82334e-06
1.3327e-05
4.47697e-06
1.72694e-05
2.13555e-05
6.60613e-06
1.18984e-07
6.61287e-06
1.30628e-07
6.62087e-06
1.55054e-07
6.63093e-06
1.94651e-07
6.64403e-06
2.53287e-07
6.66149e-06
3.3669e-07
6.68503e-06
4.52999e-07
6.717e-06
6.13545e-07
6.76059e-06
8.33939e-07
6.82016e-06
1.13553e-06
6.9016e-06
1.54738e-06
7.01276e-06
2.10881e-06
7.16382e-06
2.87262e-06
7.36703e-06
3.90894e-06
7.63495e-06
5.30906e-06
7.97463e-06
7.18797e-06
8.37323e-06
9.68179e-06
8.76781e-06
1.29324e-05
8.98989e-06
1.70473e-05
2.19702e-05
6.61778e-06
1.01207e-07
6.6373e-06
1.11109e-07
6.66047e-06
1.31882e-07
6.68957e-06
1.65554e-07
6.72744e-06
2.15414e-07
6.7778e-06
2.86331e-07
6.84557e-06
3.85222e-07
6.93739e-06
5.21728e-07
7.06219e-06
7.09143e-07
7.23201e-06
9.65705e-07
7.46303e-06
1.31637e-06
7.77658e-06
1.79525e-06
8.20013e-06
2.44906e-06
8.76715e-06
3.34192e-06
9.51386e-06
4.56235e-06
1.04684e-05
6.23338e-06
1.16239e-05
8.52634e-06
1.28815e-05
1.16748e-05
1.39628e-05
1.5966e-05
2.16159e-05
6.62768e-06
7.3527e-08
6.65807e-06
8.07202e-08
6.69414e-06
9.58094e-08
6.73943e-06
1.20268e-07
6.79835e-06
1.56486e-07
6.87669e-06
2.07997e-07
6.98208e-06
2.79831e-07
7.12481e-06
3.79001e-07
7.31875e-06
5.152e-07
7.58268e-06
7.01777e-07
7.94191e-06
9.57135e-07
8.43039e-06
1.30678e-06
9.09299e-06
1.78646e-06
9.98758e-06
2.44734e-06
1.11849e-05
3.36505e-06
1.27614e-05
4.65687e-06
1.47723e-05
6.51542e-06
1.71725e-05
9.27455e-06
1.96172e-05
1.35214e-05
2.01763e-05
6.63487e-06
3.86541e-08
6.67316e-06
4.24354e-08
6.7186e-06
5.03674e-08
6.77564e-06
6.32247e-08
6.84987e-06
8.22629e-08
6.94852e-06
1.09341e-07
7.08125e-06
1.47105e-07
7.261e-06
1.99246e-07
7.50533e-06
2.70879e-07
7.83803e-06
3.69068e-07
8.29155e-06
5.03617e-07
8.91007e-06
6.88263e-07
9.75387e-06
9.42658e-07
1.09053e-05
1.29591e-06
1.24767e-05
1.79364e-06
1.462e-05
2.51361e-06
1.75315e-05
3.60393e-06
2.14193e-05
5.38668e-06
2.62724e-05
8.66824e-06
1.57649e-05
6.63865e-06
6.68109e-06
6.73146e-06
6.79468e-06
6.87694e-06
6.98629e-06
7.13339e-06
7.33264e-06
7.60352e-06
7.97258e-06
8.4762e-06
9.16446e-06
1.01071e-05
1.1403e-05
1.31967e-05
1.57103e-05
1.93142e-05
2.47009e-05
3.33691e-05
)
;

boundaryField
{
    x0
    {
        type            calculated;
        value           nonuniform List<scalar> 10(-6.6e-06 -6.6e-06 -6.6e-06 -6.6e-06 -6.6e-06 -6.6e-06 -6.6e-06 -6.6e-06 -6.6e-06 -6.6e-06);
    }
    x1
    {
        type            calculated;
        value           nonuniform List<scalar> 10(-2.6365e-05 -1.79639e-05 -1.07345e-05 -4.4677e-06 1.964e-06 8.37521e-06 1.43172e-05 2.10568e-05 3.06838e-05 4.9134e-05);
    }
    y0
    {
        type            calculated;
        value           uniform 0;
    }
    y1
    {
        type            calculated;
        value           uniform 0;
    }
    z0
    {
        type            empty;
        value           nonuniform 0();
    }
    z1
    {
        type            empty;
        value           nonuniform 0();
    }
}


// ************************************************************************* //
