/*--------------------------------*- C++ -*----------------------------------*\
  =========                 |
  \\      /  F ield         | OpenFOAM: The Open Source CFD Toolbox
   \\    /   O peration     | Website:  https://openfoam.org
    \\  /    A nd           | Version:  7
     \\/     M anipulation  |
\*---------------------------------------------------------------------------*/
FoamFile
{
    version     2.0;
    format      ascii;
    class       volVectorField;
    location    "210000";
    object      Utheta;
}
// * * * * * * * * * * * * * * * * * * * * * * * * * * * * * * * * * * * * * //

dimensions      [0 1 -1 0 0 0 0];

internalField   nonuniform List<vector> 
200
(
(6.58066e-05 3.86739e-07 0)
(6.54009e-05 4.24627e-07 0)
(6.49366e-05 5.04126e-07 0)
(6.4368e-05 6.33052e-07 0)
(6.36394e-05 8.24095e-07 0)
(6.26793e-05 1.0961e-06 0)
(6.13933e-05 1.47599e-06 0)
(5.96545e-05 2.00157e-06 0)
(5.72909e-05 2.72561e-06 0)
(5.40672e-05 3.72186e-06 0)
(4.96591e-05 5.09425e-06 0)
(4.36161e-05 6.99184e-06 0)
(3.53026e-05 9.63507e-06 0)
(2.38014e-05 1.33673e-05 0)
(7.7336e-06 1.87684e-05 0)
(-1.51204e-05 2.69396e-05 0)
(-4.8707e-05 4.02335e-05 0)
(-0.000100208 6.27689e-05 0)
(-0.000174944 8.67019e-05 0)
(-0.000240972 4.53554e-05 0)
(6.58256e-05 5.61164e-07 0)
(6.54596e-05 6.16135e-07 0)
(6.50408e-05 7.31476e-07 0)
(6.4528e-05 9.18519e-07 0)
(6.38709e-05 1.19566e-06 0)
(6.30053e-05 1.59021e-06 0)
(6.1846e-05 2.14114e-06 0)
(6.02793e-05 2.90313e-06 0)
(5.8151e-05 3.95231e-06 0)
(5.52515e-05 5.39471e-06 0)
(5.12941e-05 7.37877e-06 0)
(4.58865e-05 1.01149e-05 0)
(3.84903e-05 1.39081e-05 0)
(2.83681e-05 1.92164e-05 0)
(1.45204e-05 2.67671e-05 0)
(-4.34803e-06 3.78093e-05 0)
(-2.96501e-05 5.46658e-05 0)
(-6.22507e-05 8.09372e-05 0)
(-0.000103523 0.000109806 0)
(-0.000153133 7.18608e-05 0)
(6.58616e-05 8.73987e-07 0)
(6.55713e-05 9.59587e-07 0)
(6.5239e-05 1.13919e-06 0)
(6.48322e-05 1.43041e-06 0)
(6.43111e-05 1.86187e-06 0)
(6.36248e-05 2.47598e-06 0)
(6.27062e-05 3.33323e-06 0)
(6.14657e-05 4.51828e-06 0)
(5.97825e-05 6.14861e-06 0)
(5.74936e-05 8.38683e-06 0)
(5.43793e-05 1.14583e-05 0)
(5.01454e-05 1.56769e-05 0)
(4.4404e-05 2.14836e-05 0)
(3.66604e-05 2.95066e-05 0)
(2.63273e-05 4.06577e-05 0)
(1.28276e-05 5.62868e-05 0)
(-4.07788e-06 7.8396e-05 0)
(-2.37173e-05 0.000109447 0)
(-4.65586e-05 0.000145411 0)
(-8.32015e-05 0.000122509 0)
(6.59112e-05 1.10121e-06 0)
(6.57248e-05 1.20904e-06 0)
(6.55116e-05 1.43527e-06 0)
(6.52506e-05 1.80207e-06 0)
(6.49165e-05 2.34542e-06 0)
(6.44766e-05 3.11861e-06 0)
(6.38883e-05 4.19753e-06 0)
(6.30947e-05 5.68815e-06 0)
(6.20196e-05 7.73701e-06 0)
(6.05612e-05 1.05457e-05 0)
(5.85842e-05 1.43908e-05 0)
(5.59118e-05 1.96508e-05 0)
(5.232e-05 2.68429e-05 0)
(4.75422e-05 3.66688e-05 0)
(4.13007e-05 5.00701e-05 0)
(3.34009e-05 6.82738e-05 0)
(2.39434e-05 9.27721e-05 0)
(1.36405e-05 0.000125013 0)
(2.75617e-06 0.00016357 0)
(-2.37903e-05 0.000167539 0)
(6.59694e-05 1.2206e-06 0)
(6.59053e-05 1.3401e-06 0)
(6.5832e-05 1.59078e-06 0)
(6.57423e-05 1.99719e-06 0)
(6.56276e-05 2.59913e-06 0)
(6.54769e-05 3.45551e-06 0)
(6.52757e-05 4.65013e-06 0)
(6.50051e-05 6.29979e-06 0)
(6.464e-05 8.56558e-06 0)
(6.41474e-05 1.16682e-05 0)
(6.34845e-05 1.59082e-05 0)
(6.25975e-05 2.16928e-05 0)
(6.1422e-05 2.95682e-05 0)
(5.98877e-05 4.02557e-05 0)
(5.79323e-05 5.46802e-05 0)
(5.55309e-05 7.39648e-05 0)
(5.27424e-05 9.93271e-05 0)
(4.97496e-05 0.000131754 0)
(4.65016e-05 0.000170962 0)
(3.22049e-05 0.000200991 0)
(6.60307e-05 1.22051e-06 0)
(6.6095e-05 1.33996e-06 0)
(6.61687e-05 1.59055e-06 0)
(6.6259e-05 1.99679e-06 0)
(6.63748e-05 2.5984e-06 0)
(6.65276e-05 3.45417e-06 0)
(6.67326e-05 4.64768e-06 0)
(6.70101e-05 6.2953e-06 0)
(6.73879e-05 8.55737e-06 0)
(6.79038e-05 1.16532e-05 0)
(6.86088e-05 1.5881e-05 0)
(6.95718e-05 2.16439e-05 0)
(7.08829e-05 2.94815e-05 0)
(7.26542e-05 4.01054e-05 0)
(7.50099e-05 5.44302e-05 0)
(7.80479e-05 7.35782e-05 0)
(8.17393e-05 9.88109e-05 0)
(8.57052e-05 0.000131297 0)
(8.87885e-05 0.000171583 0)
(8.68255e-05 0.000216629 0)
(6.60889e-05 1.10095e-06 0)
(6.62754e-05 1.20868e-06 0)
(6.64888e-05 1.43468e-06 0)
(6.67502e-05 1.80102e-06 0)
(6.7085e-05 2.34351e-06 0)
(6.75262e-05 3.11511e-06 0)
(6.81169e-05 4.1911e-06 0)
(6.89148e-05 5.67636e-06 0)
(6.99979e-05 7.71541e-06 0)
(7.1471e-05 1.05062e-05 0)
(7.34752e-05 1.43188e-05 0)
(7.6198e-05 1.95203e-05 0)
(7.98836e-05 2.66084e-05 0)
(8.48364e-05 3.62543e-05 0)
(9.1405e-05 4.93571e-05 0)
(9.99115e-05 6.71068e-05 0)
(0.000110462 9.10406e-05 0)
(0.000122527 0.000123036 0)
(0.000134222 0.000165067 0)
(0.0001414 0.00021793 0)
(6.61384e-05 8.73668e-07 0)
(6.64287e-05 9.59146e-07 0)
(6.6761e-05 1.13845e-06 0)
(6.71678e-05 1.42911e-06 0)
(6.76889e-05 1.8595e-06 0)
(6.83752e-05 2.47164e-06 0)
(6.92938e-05 3.32527e-06 0)
(7.05344e-05 4.50365e-06 0)
(7.22178e-05 6.12172e-06 0)
(7.45071e-05 8.33741e-06 0)
(7.76229e-05 1.13675e-05 0)
(8.18615e-05 1.55102e-05 0)
(8.76169e-05 2.11776e-05 0)
(9.54029e-05 2.89463e-05 0)
(0.000105862 3.9637e-05 0)
(0.000119731 5.44513e-05 0)
(0.000137669 7.52088e-05 0)
(0.000159724 0.000104747 0)
(0.000183949 0.000147437 0)
(0.00020337 0.000208961 0)
(6.61744e-05 5.60906e-07 0)
(6.65402e-05 6.15778e-07 0)
(6.69588e-05 7.30884e-07 0)
(6.74712e-05 9.17466e-07 0)
(6.81275e-05 1.19374e-06 0)
(6.89919e-05 1.58669e-06 0)
(7.01489e-05 2.13468e-06 0)
(7.17113e-05 2.89124e-06 0)
(7.38317e-05 3.93039e-06 0)
(7.67168e-05 5.35423e-06 0)
(8.06479e-05 7.30376e-06 0)
(8.60081e-05 9.97521e-06 0)
(9.33197e-05 1.36456e-05 0)
(0.000103296 1.87162e-05 0)
(0.00011691 2.57935e-05 0)
(0.000135483 3.58524e-05 0)
(0.000160757 5.05968e-05 0)
(0.000194754 7.33062e-05 0)
(0.000238459 0.000110948 0)
(0.000284781 0.000179706 0)
(6.61933e-05 3.86541e-07 0)
(6.65987e-05 4.24354e-07 0)
(6.70627e-05 5.03674e-07 0)
(6.76307e-05 6.32247e-07 0)
(6.83581e-05 8.22629e-07 0)
(6.93162e-05 1.09341e-06 0)
(7.05984e-05 1.47105e-06 0)
(7.23301e-05 1.99246e-06 0)
(7.46808e-05 2.70879e-06 0)
(7.78805e-05 3.69068e-06 0)
(8.22439e-05 5.03617e-06 0)
(8.82033e-05 6.88263e-06 0)
(9.63579e-05 9.42658e-06 0)
(0.000107551 1.29591e-05 0)
(0.000122999 1.79364e-05 0)
(0.000144535 2.51361e-05 0)
(0.000175122 3.60393e-05 0)
(0.000220075 5.38668e-05 0)
(0.00029035 8.66824e-05 0)
(0.000412516 0.000157649 0)
)
;

boundaryField
{
    x0
    {
        type            fixedValue;
        value           uniform (6.6e-05 0 0);
    }
    x1
    {
        type            zeroGradient;
    }
    y0
    {
        type            zeroGradient;
    }
    y1
    {
        type            zeroGradient;
    }
    z0
    {
        type            empty;
    }
    z1
    {
        type            empty;
    }
}


// ************************************************************************* //
