/*--------------------------------*- C++ -*----------------------------------*\
  =========                 |
  \\      /  F ield         | OpenFOAM: The Open Source CFD Toolbox
   \\    /   O peration     | Website:  https://openfoam.org
    \\  /    A nd           | Version:  7
     \\/     M anipulation  |
\*---------------------------------------------------------------------------*/
FoamFile
{
    version     2.0;
    format      ascii;
    class       volScalarField;
    location    "270000";
    object      C;
}
// * * * * * * * * * * * * * * * * * * * * * * * * * * * * * * * * * * * * * //

dimensions      [0 0 0 0 0 0 0];

internalField   nonuniform List<scalar> 
200
(
-7.01949e-42
1.60232e-39
-3.48105e-37
7.2558e-35
-1.45144e-32
2.79101e-30
-5.17776e-28
9.32867e-26
-1.65107e-23
2.92745e-21
-5.38254e-19
1.09583e-16
-2.85925e-14
1.57677e-11
8.82574e-09
1.03228e-06
4.7756e-05
0.000973682
0.00853344
0.0305164
-3.6886e-43
8.4819e-41
-1.8563e-38
3.89694e-36
-7.84694e-34
1.51721e-31
-2.82442e-29
5.08825e-27
-8.95003e-25
1.56046e-22
-2.76784e-20
5.23638e-18
-1.16406e-15
3.95477e-13
1.31531e-09
2.185e-07
1.30884e-05
0.000350458
0.00436248
0.0235609
1.28778e-43
-3.00618e-41
6.67397e-39
-1.41977e-36
2.89299e-34
-5.64922e-32
1.05903e-29
-1.91293e-27
3.35141e-25
-5.75951e-23
9.89605e-21
-1.75724e-18
3.42798e-16
-8.35729e-14
3.71077e-11
1.86493e-08
1.98403e-06
8.67276e-05
0.00179657
0.0166954
2.66201e-45
-5.40962e-43
1.00986e-40
-1.7164e-38
2.56123e-36
-3.05441e-34
1.83784e-32
4.14654e-30
-2.1078e-27
6.08914e-25
-1.47102e-22
3.30578e-20
-7.41334e-18
1.80193e-15
-5.48228e-13
3.069e-10
1.00097e-07
9.5325e-06
0.000435473
0.00998076
-9.81084e-45
2.31407e-42
-5.15109e-40
1.08837e-37
-2.17663e-35
4.10816e-33
-7.29548e-31
1.21541e-28
-1.89459e-26
2.75828e-24
-3.74916e-22
4.76694e-20
-5.69526e-18
6.42251e-16
-6.76988e-14
5.96124e-12
3.4082e-10
3.70513e-07
2.25686e-05
0.00184079
-1.2462e-43
3.09258e-41
-7.25821e-39
1.61988e-36
-3.42764e-34
6.85279e-32
-1.28927e-29
2.27167e-27
-3.72728e-25
5.65585e-23
-7.87099e-21
9.94326e-19
-1.1259e-16
1.12498e-14
-9.73021e-13
7.11835e-11
-4.28927e-09
2.08549e-07
-7.04921e-06
0.000269671
-1.32467e-43
3.4192e-41
-8.34245e-39
1.9333e-36
-4.24014e-34
8.76193e-32
-1.69654e-29
3.05707e-27
-5.0831e-25
7.71698e-23
-1.05578e-20
1.28088e-18
-1.35131e-16
1.21109e-14
-8.97432e-13
5.33226e-11
-2.4553e-09
8.423e-08
-2.03166e-06
3.10155e-05
-4.40703e-44
1.17825e-41
-2.9765e-39
7.13499e-37
-1.61624e-34
3.44152e-32
-6.84269e-30
1.25973e-27
-2.12475e-25
3.24044e-23
-4.39656e-21
5.20323e-19
-5.24653e-17
4.38533e-15
-2.94491e-13
1.5338e-11
-5.95114e-10
1.63618e-08
-2.94583e-07
2.82297e-06
-6.07189e-45
1.67285e-42
-4.35475e-40
1.07523e-37
-2.50685e-35
5.48669e-33
-1.11893e-30
2.10618e-28
-3.6159e-26
5.5788e-24
-7.59628e-22
8.93156e-20
-8.83816e-18
7.14519e-16
-4.56251e-14
2.21398e-12
-7.79923e-11
1.87794e-09
-2.79937e-08
1.99852e-07
-3.65042e-46
1.02522e-43
-2.7211e-41
6.85016e-39
-1.62804e-36
3.63073e-34
-7.53845e-32
1.44278e-29
-2.51364e-27
3.92499e-25
-5.38972e-23
6.36244e-21
-6.2871e-19
5.04376e-17
-3.17247e-15
1.50295e-13
-5.10762e-12
1.1646e-10
-1.58786e-09
9.55642e-09
)
;

boundaryField
{
    x0
    {
        type            fixedValue;
        value           uniform 0;
    }
    x1
    {
        type            inletOutlet;
        inletValue      uniform 0.0357;
        value           nonuniform List<scalar> 10(0.0357 0.0357 0.0357 0.0357 0.00184079 0.000269671 3.10155e-05 2.82297e-06 1.99852e-07 9.55642e-09);
    }
    y0
    {
        type            zeroGradient;
    }
    y1
    {
        type            zeroGradient;
    }
    z0
    {
        type            empty;
    }
    z1
    {
        type            empty;
    }
}


// ************************************************************************* //
