/*--------------------------------*- C++ -*----------------------------------*\
  =========                 |
  \\      /  F ield         | OpenFOAM: The Open Source CFD Toolbox
   \\    /   O peration     | Website:  https://openfoam.org
    \\  /    A nd           | Version:  7
     \\/     M anipulation  |
\*---------------------------------------------------------------------------*/
FoamFile
{
    version     2.0;
    format      ascii;
    class       volScalarField;
    location    "270000";
    object      C_0;
}
// * * * * * * * * * * * * * * * * * * * * * * * * * * * * * * * * * * * * * //

dimensions      [0 0 0 0 0 0 0];

internalField   nonuniform List<scalar> 
200
(
-6.98858e-42
1.59562e-39
-3.46725e-37
7.22862e-35
-1.44632e-32
2.78178e-30
-5.16177e-28
9.3019e-26
-1.64669e-23
2.92033e-21
-5.37062e-19
1.09363e-16
-2.85413e-14
1.57424e-11
8.81391e-09
1.03114e-06
4.77151e-05
0.000973093
0.00853049
0.0305131
-3.67152e-43
8.44445e-41
-1.84851e-38
3.88144e-36
-7.81743e-34
1.51183e-31
-2.81502e-29
5.07244e-27
-8.92415e-25
1.55628e-22
-2.76103e-20
5.22459e-18
-1.16168e-15
3.94743e-13
1.31349e-09
2.18252e-07
1.30767e-05
0.000350229
0.00436072
0.0235575
1.28202e-43
-2.99338e-41
6.64699e-39
-1.41434e-36
2.88255e-34
-5.63004e-32
1.05566e-29
-1.90726e-27
3.34219e-25
-5.74489e-23
9.87302e-21
-1.75352e-18
3.42143e-16
-8.343e-14
3.70512e-11
1.86266e-08
1.98212e-06
8.66657e-05
0.00179574
0.0166922
2.65024e-45
-5.38691e-43
1.00586e-40
-1.70999e-38
2.55231e-36
-3.04466e-34
1.8331e-32
4.13235e-30
-2.10168e-27
6.07314e-25
-1.4675e-22
3.29857e-20
-7.39867e-18
1.79871e-15
-5.47345e-13
3.06454e-10
9.99847e-08
9.52454e-06
0.000435227
0.00997803
-9.76471e-45
2.3037e-42
-5.12917e-40
1.08398e-37
-2.16836e-35
4.09349e-33
-7.27112e-31
1.21164e-28
-1.88916e-26
2.75105e-24
-3.74025e-22
4.75679e-20
-5.68453e-18
6.41195e-16
-6.76036e-14
5.95458e-12
3.40018e-10
3.70137e-07
2.25497e-05
0.00183996
-1.24017e-43
3.07827e-41
-7.22622e-39
1.6131e-36
-3.41404e-34
6.82712e-32
-1.28472e-29
2.26416e-27
-3.71579e-25
5.63967e-23
-7.85021e-21
9.91922e-19
-1.12343e-16
1.12276e-14
-9.71318e-13
7.10748e-11
-4.28369e-09
2.08325e-07
-7.04338e-06
0.000269496
-1.31797e-43
3.40265e-41
-8.3039e-39
1.92479e-36
-4.22241e-34
8.72722e-32
-1.6902e-29
3.0463e-27
-5.06632e-25
7.69321e-23
-1.05276e-20
1.27751e-18
-1.34805e-16
1.20844e-14
-8.95664e-13
5.32295e-11
-2.45156e-09
8.41207e-08
-2.02948e-06
3.09889e-05
-4.38378e-44
1.17229e-41
-2.9621e-39
7.10204e-37
-1.60913e-34
3.42714e-32
-6.81561e-30
1.25502e-27
-2.11728e-25
3.22975e-23
-4.38304e-21
5.18838e-19
-5.23272e-17
4.37476e-15
-2.93847e-13
1.53079e-11
-5.94078e-10
1.6337e-08
-2.94203e-07
2.81997e-06
-6.03854e-45
1.66403e-42
-4.33273e-40
1.07003e-37
-2.49528e-35
5.46257e-33
-1.11426e-30
2.09785e-28
-3.6024e-26
5.55921e-24
-7.57128e-22
8.90415e-20
-8.81299e-18
7.12643e-16
-4.55155e-14
2.20915e-12
-7.78398e-11
1.87469e-09
-2.79516e-08
1.99599e-07
-3.62956e-46
1.01958e-43
-2.70674e-41
6.81551e-39
-1.62017e-36
3.61397e-34
-7.50531e-32
1.43675e-29
-2.5037e-27
3.91034e-25
-5.3708e-23
6.34151e-21
-6.26782e-19
5.02942e-17
-3.16416e-15
1.49935e-13
-5.09654e-12
1.16233e-10
-1.58514e-09
9.54239e-09
)
;

boundaryField
{
    x0
    {
        type            fixedValue;
        value           uniform 0;
    }
    x1
    {
        type            inletOutlet;
        inletValue      uniform 0.0357;
        value           nonuniform List<scalar> 10(0.0357 0.0357 0.0357 0.0357 0.00183996 0.000269496 3.09889e-05 2.81997e-06 1.99599e-07 9.54239e-09);
    }
    y0
    {
        type            zeroGradient;
    }
    y1
    {
        type            zeroGradient;
    }
    z0
    {
        type            empty;
    }
    z1
    {
        type            empty;
    }
}


// ************************************************************************* //
