/*--------------------------------*- C++ -*----------------------------------*\
  =========                 |
  \\      /  F ield         | OpenFOAM: The Open Source CFD Toolbox
   \\    /   O peration     | Website:  https://openfoam.org
    \\  /    A nd           | Version:  7
     \\/     M anipulation  |
\*---------------------------------------------------------------------------*/
FoamFile
{
    version     2.0;
    format      ascii;
    class       surfaceScalarField;
    location    "270000";
    object      phi;
}
// * * * * * * * * * * * * * * * * * * * * * * * * * * * * * * * * * * * * * //

dimensions      [0 3 -1 0 0 0 0];

internalField   nonuniform List<scalar> 
370
(
6.5612e-06
3.88017e-08
6.51859e-06
4.26041e-08
6.46801e-06
5.05828e-08
6.40449e-06
6.35234e-08
6.32179e-06
8.27017e-08
6.21177e-06
1.10013e-07
6.0636e-06
1.48169e-07
5.86262e-06
2.0098e-07
5.58885e-06
2.73778e-07
5.21481e-06
3.74036e-07
4.70248e-06
5.12334e-07
3.99852e-06
7.03954e-07
3.02677e-06
9.71749e-07
1.67485e-06
1.35192e-06
-2.32356e-07
1.90721e-06
-2.9929e-06
2.76055e-06
-7.16771e-06
4.1748e-06
-1.36475e-05
6.47977e-06
-2.17303e-05
8.08282e-06
2.68276e-06
6.565e-06
7.38009e-08
6.52657e-06
8.10317e-08
6.48095e-06
9.62039e-08
6.42367e-06
1.20809e-07
6.3491e-06
1.5727e-07
6.24993e-06
2.09183e-07
6.11642e-06
2.81682e-07
5.93542e-06
3.81974e-07
5.6891e-06
5.20096e-07
5.35311e-06
7.1003e-07
4.8941e-06
9.71345e-07
4.26632e-06
1.33173e-06
3.40695e-06
1.83112e-06
2.23014e-06
2.52873e-06
6.21418e-07
3.51593e-06
-1.55781e-06
4.93977e-06
-4.42085e-06
7.03784e-06
-7.99566e-06
1.00546e-05
-1.27176e-05
1.28047e-05
7.61317e-06
6.57223e-06
1.01569e-07
6.54175e-06
1.11518e-07
6.50556e-06
1.32392e-07
6.46013e-06
1.6624e-07
6.40101e-06
2.16387e-07
6.32243e-06
2.87765e-07
6.21671e-06
3.87403e-07
6.07354e-06
5.25137e-07
5.87904e-06
7.14603e-07
5.61442e-06
9.74644e-07
5.25449e-06
1.33128e-06
4.7657e-06
1.82052e-06
4.10456e-06
2.49227e-06
3.21734e-06
3.41595e-06
2.04534e-06
4.68792e-06
5.45454e-07
6.43966e-06
-1.25646e-06
8.83976e-06
-3.24369e-06
1.20418e-05
-5.97648e-06
1.55375e-05
1.27057e-05
6.58218e-06
1.19389e-07
6.56262e-06
1.31079e-07
6.53941e-06
1.55605e-07
6.51027e-06
1.95371e-07
6.47239e-06
2.54273e-07
6.42207e-06
3.38086e-07
6.35444e-06
4.55029e-07
6.26301e-06
6.16567e-07
6.13908e-06
8.38535e-07
5.97106e-06
1.14266e-06
5.74372e-06
1.55863e-06
5.43745e-06
2.12678e-06
5.02824e-06
2.90148e-06
4.4893e-06
3.9549e-06
3.79709e-06
5.38013e-06
2.94627e-06
7.29048e-06
1.97854e-06
9.80748e-06
9.99177e-07
1.30212e-05
-2.54534e-07
1.67912e-05
1.76207e-05
6.59387e-06
1.25519e-07
6.58714e-06
1.37805e-07
6.57917e-06
1.6358e-07
6.56918e-06
2.05365e-07
6.5562e-06
2.67247e-07
6.53901e-06
3.55278e-07
6.51598e-06
4.78059e-07
6.48498e-06
6.47569e-07
6.4432e-06
8.80308e-07
6.38703e-06
1.19883e-06
6.31187e-06
1.63379e-06
6.21215e-06
2.2265e-06
6.08166e-06
3.03196e-06
5.91454e-06
4.12202e-06
5.70744e-06
5.58723e-06
5.46332e-06
7.5346e-06
5.19567e-06
1.00751e-05
4.92597e-06
1.32909e-05
4.55099e-06
1.71662e-05
2.0875e-05
6.60616e-06
1.19362e-07
6.61292e-06
1.31042e-07
6.62096e-06
1.55544e-07
6.63106e-06
1.95261e-07
6.64423e-06
2.54073e-07
6.66179e-06
3.37721e-07
6.68549e-06
4.5436e-07
6.71772e-06
6.15342e-07
6.76173e-06
8.36293e-07
6.82199e-06
1.13857e-06
6.90457e-06
1.55122e-06
7.01761e-06
2.11345e-06
7.17173e-06
2.87785e-06
7.37975e-06
3.914e-06
7.6548e-06
5.31219e-06
8.00385e-06
7.18555e-06
8.41163e-06
9.66735e-06
8.80651e-06
1.2896e-05
8.99263e-06
1.69801e-05
2.18174e-05
6.61784e-06
1.01526e-07
6.63742e-06
1.11458e-07
6.66067e-06
1.32292e-07
6.68987e-06
1.66062e-07
6.72788e-06
2.16064e-07
6.77843e-06
2.87173e-07
6.84647e-06
3.86318e-07
6.93867e-06
5.23145e-07
7.06401e-06
7.10949e-07
7.23463e-06
9.67951e-07
7.4668e-06
1.31905e-06
7.78201e-06
1.79824e-06
8.20788e-06
2.45198e-06
8.77793e-06
3.34395e-06
9.52816e-06
4.56196e-06
1.04856e-05
6.22806e-06
1.16404e-05
8.5126e-06
1.28873e-05
1.16491e-05
1.39383e-05
1.59291e-05
2.15705e-05
6.62777e-06
7.37574e-08
6.65825e-06
8.09715e-08
6.69444e-06
9.6104e-08
6.73987e-06
1.20632e-07
6.79899e-06
1.56947e-07
6.87757e-06
2.0859e-07
6.9833e-06
2.80593e-07
7.12647e-06
3.7997e-07
7.32101e-06
5.16408e-07
7.58573e-06
7.03232e-07
7.94599e-06
9.5879e-07
8.43575e-06
1.30848e-06
9.09985e-06
1.78788e-06
9.99595e-06
2.44785e-06
1.11943e-05
3.36365e-06
1.27702e-05
4.65214e-06
1.47769e-05
6.50586e-06
1.71665e-05
9.2595e-06
1.95923e-05
1.35033e-05
2.01622e-05
6.63498e-06
3.87747e-08
6.67339e-06
4.25668e-08
6.71897e-06
5.05211e-08
6.77619e-06
6.34136e-08
6.85063e-06
8.25016e-08
6.94958e-06
1.09646e-07
7.08268e-06
1.47494e-07
7.26291e-06
1.99736e-07
7.50784e-06
2.7148e-07
7.84129e-06
3.69777e-07
8.29569e-06
5.04397e-07
8.91515e-06
6.89022e-07
9.75982e-06
9.43206e-07
1.09117e-05
1.29592e-06
1.24828e-05
1.79264e-06
1.46239e-05
2.51099e-06
1.75306e-05
3.59919e-06
2.14102e-05
5.37991e-06
2.62525e-05
8.66098e-06
1.57606e-05
6.63877e-06
6.68134e-06
6.73186e-06
6.79528e-06
6.87778e-06
6.98742e-06
7.13492e-06
7.33465e-06
7.60613e-06
7.97591e-06
8.48031e-06
9.16933e-06
1.01125e-05
1.14085e-05
1.32011e-05
1.57121e-05
1.93113e-05
2.46912e-05
3.33522e-05
)
;

boundaryField
{
    x0
    {
        type            calculated;
        value           nonuniform List<scalar> 10(-6.6e-06 -6.6e-06 -6.6e-06 -6.6e-06 -6.6e-06 -6.6e-06 -6.6e-06 -6.6e-06 -6.6e-06 -6.6e-06);
    }
    x1
    {
        type            calculated;
        value           nonuniform List<scalar> 10(-2.44131e-05 -1.7648e-05 -1.1069e-05 -5.16949e-06 1.29667e-06 8.05021e-06 1.41852e-05 2.10006e-05 3.06541e-05 4.91128e-05);
    }
    y0
    {
        type            calculated;
        value           uniform 0;
    }
    y1
    {
        type            calculated;
        value           uniform 0;
    }
    z0
    {
        type            empty;
        value           nonuniform 0();
    }
    z1
    {
        type            empty;
        value           nonuniform 0();
    }
}


// ************************************************************************* //
