/*--------------------------------*- C++ -*----------------------------------*\
  =========                 |
  \\      /  F ield         | OpenFOAM: The Open Source CFD Toolbox
   \\    /   O peration     | Website:  https://openfoam.org
    \\  /    A nd           | Version:  7
     \\/     M anipulation  |
\*---------------------------------------------------------------------------*/
FoamFile
{
    version     2.0;
    format      ascii;
    class       volVectorField;
    location    "270000";
    object      Utheta;
}
// * * * * * * * * * * * * * * * * * * * * * * * * * * * * * * * * * * * * * //

dimensions      [0 1 -1 0 0 0 0];

internalField   nonuniform List<vector> 
200
(
(6.5806e-05 3.88017e-07 0)
(6.5399e-05 4.26041e-07 0)
(6.4933e-05 5.05828e-07 0)
(6.43625e-05 6.35234e-07 0)
(6.36314e-05 8.27017e-07 0)
(6.26678e-05 1.10013e-06 0)
(6.13769e-05 1.48169e-06 0)
(5.96311e-05 2.0098e-06 0)
(5.72573e-05 2.73778e-06 0)
(5.40183e-05 3.74036e-06 0)
(4.95864e-05 5.12334e-06 0)
(4.3505e-05 7.03954e-06 0)
(3.51265e-05 9.71749e-06 0)
(2.35081e-05 1.35192e-05 0)
(7.21247e-06 1.90721e-05 0)
(-1.61263e-05 2.76055e-05 0)
(-5.0803e-05 4.1748e-05 0)
(-0.000104076 6.47977e-05 0)
(-0.000176889 8.08282e-05 0)
(-0.000230717 2.68276e-05 0)
(6.5825e-05 5.63013e-07 0)
(6.54579e-05 6.18179e-07 0)
(6.50376e-05 7.33934e-07 0)
(6.45231e-05 9.21663e-07 0)
(6.38638e-05 1.19986e-06 0)
(6.29951e-05 1.59598e-06 0)
(6.18317e-05 2.14925e-06 0)
(6.02592e-05 2.91477e-06 0)
(5.81226e-05 3.96937e-06 0)
(5.52111e-05 5.42033e-06 0)
(5.1236e-05 7.4184e-06 0)
(4.58021e-05 1.01784e-05 0)
(3.83663e-05 1.40143e-05 0)
(2.81854e-05 1.94033e-05 0)
(1.42578e-05 2.71157e-05 0)
(-4.68194e-06 3.85016e-05 0)
(-2.98933e-05 5.60632e-05 0)
(-6.20826e-05 8.26718e-05 0)
(-0.000103566 0.000104438 0)
(-0.000151828 5.14796e-05 0)
(6.58612e-05 8.76852e-07 0)
(6.55699e-05 9.62749e-07 0)
(6.52365e-05 1.14298e-06 0)
(6.48284e-05 1.43524e-06 0)
(6.43057e-05 1.86828e-06 0)
(6.36172e-05 2.48474e-06 0)
(6.26957e-05 3.34543e-06 0)
(6.14513e-05 4.53555e-06 0)
(5.97629e-05 6.1735e-06 0)
(5.74673e-05 8.42337e-06 0)
(5.43445e-05 1.15131e-05 0)
(5.01009e-05 1.57612e-05 0)
(4.43513e-05 2.16169e-05 0)
(3.66095e-05 2.97234e-05 0)
(2.63134e-05 4.10192e-05 0)
(1.2954e-05 5.68971e-05 0)
(-3.55502e-06 7.9388e-05 0)
(-2.25007e-05 0.000110482 0)
(-4.61008e-05 0.000141711 0)
(-8.52274e-05 0.000101594 0)
(6.59109e-05 1.10479e-06 0)
(6.5724e-05 1.21299e-06 0)
(6.55101e-05 1.43998e-06 0)
(6.52484e-05 1.80805e-06 0)
(6.49133e-05 2.3533e-06 0)
(6.44723e-05 3.12925e-06 0)
(6.38825e-05 4.21216e-06 0)
(6.30873e-05 5.70852e-06 0)
(6.20104e-05 7.76569e-06 0)
(6.05507e-05 1.05865e-05 0)
(5.85739e-05 1.44496e-05 0)
(5.59059e-05 1.97365e-05 0)
(5.23285e-05 2.69687e-05 0)
(4.75877e-05 3.68542e-05 0)
(4.1432e-05 5.03403e-05 0)
(3.37168e-05 6.86507e-05 0)
(2.46241e-05 9.32362e-05 0)
(1.48886e-05 0.000125315 0)
(3.72321e-06 0.000161644 0)
(-2.71201e-05 0.000151632 0)
(6.59694e-05 1.22454e-06 0)
(6.59051e-05 1.34442e-06 0)
(6.58316e-05 1.59592e-06 0)
(6.57417e-05 2.00368e-06 0)
(6.56269e-05 2.6076e-06 0)
(6.54761e-05 3.46682e-06 0)
(6.52749e-05 4.66544e-06 0)
(6.50048e-05 6.32068e-06 0)
(6.46409e-05 8.59421e-06 0)
(6.41512e-05 1.17075e-05 0)
(6.34945e-05 1.59621e-05 0)
(6.26201e-05 2.17664e-05 0)
(6.14691e-05 2.96672e-05 0)
(5.9981e-05 4.03846e-05 0)
(5.81099e-05 5.48368e-05 0)
(5.58538e-05 7.41254e-05 0)
(5.32949e-05 9.94131e-05 0)
(5.06082e-05 0.00013156 0)
(4.73848e-05 0.000169787 0)
(2.92383e-05 0.000192478 0)
(6.60308e-05 1.22441e-06 0)
(6.60954e-05 1.34424e-06 0)
(6.61694e-05 1.59562e-06 0)
(6.62601e-05 2.00313e-06 0)
(6.63765e-05 2.6066e-06 0)
(6.65301e-05 3.465e-06 0)
(6.67364e-05 4.66209e-06 0)
(6.7016e-05 6.31455e-06 0)
(6.73972e-05 8.583e-06 0)
(6.79186e-05 1.1687e-05 0)
(6.86328e-05 1.59251e-05 0)
(6.96109e-05 2.16997e-05 0)
(7.09467e-05 2.9549e-05 0)
(7.27574e-05 4.01801e-05 0)
(7.51727e-05 5.44971e-05 0)
(7.82932e-05 7.36007e-05 0)
(8.20774e-05 9.87124e-05 0)
(8.60907e-05 0.000130934 0)
(8.89957e-05 0.000170731 0)
(8.52142e-05 0.000213462 0)
(6.60892e-05 1.10444e-06 0)
(6.62763e-05 1.2125e-06 0)
(6.64905e-05 1.43918e-06 0)
(6.67527e-05 1.80661e-06 0)
(6.70888e-05 2.35068e-06 0)
(6.75315e-05 3.12447e-06 0)
(6.81245e-05 4.20339e-06 0)
(6.89257e-05 5.69243e-06 0)
(7.00134e-05 7.73621e-06 0)
(7.14932e-05 1.05326e-05 0)
(7.35072e-05 1.43513e-05 0)
(7.62441e-05 1.95585e-05 0)
(7.99495e-05 2.66491e-05 0)
(8.49291e-05 3.62897e-05 0)
(9.15305e-05 4.93707e-05 0)
(0.000100069 6.7068e-05 0)
(0.00011063 9.08997e-05 0)
(0.000122639 0.000122725 0)
(0.000134128 0.000164546 0)
(0.000140617 0.000216939 0)
(6.61388e-05 8.76416e-07 0)
(6.64301e-05 9.62147e-07 0)
(6.67635e-05 1.14198e-06 0)
(6.71716e-05 1.43347e-06 0)
(6.76943e-05 1.86505e-06 0)
(6.83828e-05 2.47881e-06 0)
(6.93044e-05 3.33455e-06 0)
(7.05489e-05 4.51558e-06 0)
(7.22374e-05 6.13679e-06 0)
(7.45337e-05 8.35591e-06 0)
(7.76586e-05 1.13892e-05 0)
(8.19087e-05 1.55336e-05 0)
(8.7678e-05 2.11993e-05 0)
(9.5479e-05 2.8959e-05 0)
(0.000105951 3.9628e-05 0)
(0.000119822 5.4401e-05 0)
(0.000137735 7.50923e-05 0)
(0.000159717 0.000104543 0)
(0.000183794 0.000147162 0)
(0.000202965 0.000208664 0)
(6.61749e-05 5.62661e-07 0)
(6.65418e-05 6.17692e-07 0)
(6.69618e-05 7.33126e-07 0)
(6.74758e-05 9.20226e-07 0)
(6.81341e-05 1.19724e-06 0)
(6.9001e-05 1.59118e-06 0)
(7.01613e-05 2.14043e-06 0)
(7.17279e-05 2.89853e-06 0)
(7.38537e-05 3.93944e-06 0)
(7.67456e-05 5.36505e-06 0)
(8.06849e-05 7.31594e-06 0)
(8.60542e-05 9.98752e-06 0)
(9.33748e-05 1.36554e-05 0)
(0.000103358 1.87189e-05 0)
(0.000116972 2.57814e-05 0)
(0.000135533 3.58157e-05 0)
(0.000160772 5.05253e-05 0)
(0.000194704 7.31971e-05 0)
(0.000238313 0.000110821 0)
(0.000284533 0.000179614 0)
(6.61939e-05 3.87747e-07 0)
(6.66006e-05 4.25668e-07 0)
(6.7066e-05 5.05211e-07 0)
(6.76357e-05 6.34136e-07 0)
(6.83653e-05 8.25016e-07 0)
(6.9326e-05 1.09646e-06 0)
(7.06117e-05 1.47494e-06 0)
(7.23479e-05 1.99736e-06 0)
(7.47039e-05 2.7148e-06 0)
(7.79102e-05 3.69777e-06 0)
(8.22811e-05 5.04397e-06 0)
(8.82482e-05 6.89022e-06 0)
(9.64093e-05 9.43206e-06 0)
(0.000107605 1.29592e-05 0)
(0.000123048 1.79264e-05 0)
(0.000144566 2.51099e-05 0)
(0.000175117 3.59919e-05 0)
(0.000220012 5.37991e-05 0)
(0.000290217 8.66098e-05 0)
(0.000412325 0.000157606 0)
)
;

boundaryField
{
    x0
    {
        type            fixedValue;
        value           uniform (6.6e-05 0 0);
    }
    x1
    {
        type            zeroGradient;
    }
    y0
    {
        type            zeroGradient;
    }
    y1
    {
        type            zeroGradient;
    }
    z0
    {
        type            empty;
    }
    z1
    {
        type            empty;
    }
}


// ************************************************************************* //
