/*--------------------------------*- C++ -*----------------------------------*\
  =========                 |
  \\      /  F ield         | OpenFOAM: The Open Source CFD Toolbox
   \\    /   O peration     | Website:  https://openfoam.org
    \\  /    A nd           | Version:  7
     \\/     M anipulation  |
\*---------------------------------------------------------------------------*/
FoamFile
{
    version     2.0;
    format      ascii;
    class       volScalarField;
    location    "480000";
    object      C;
}
// * * * * * * * * * * * * * * * * * * * * * * * * * * * * * * * * * * * * * //

dimensions      [0 0 0 0 0 0 0];

internalField   nonuniform List<scalar> 
200
(
-6.35005e-37
8.24048e-35
-1.01124e-32
1.19098e-30
-1.34668e-28
1.46457e-26
-1.53781e-24
1.56987e-22
-1.57686e-20
1.59078e-18
-1.67153e-16
1.9618e-14
-3.01638e-12
1.0948e-09
2.9142e-07
1.78109e-05
0.000426988
0.0043668
0.0190871
0.0375799
-6.04081e-38
7.92009e-36
-9.82435e-34
1.16983e-31
-1.33735e-29
1.46974e-27
-1.5575e-25
1.60041e-23
-1.60997e-21
1.61151e-19
-1.65053e-17
1.82043e-15
-2.40349e-13
5.10438e-11
4.86031e-08
4.15692e-06
0.000130517
0.00182127
0.0115028
0.0321876
1.37682e-38
-1.84277e-36
2.33178e-34
-2.82885e-32
3.2895e-30
-3.66903e-28
3.93336e-26
-4.06953e-24
4.0929e-22
-4.05093e-20
4.02816e-18
-4.17138e-16
4.80707e-14
-7.09091e-12
2.01834e-09
4.45023e-07
2.39862e-05
0.000545122
0.00576002
0.0256627
3.84917e-40
-4.70472e-38
5.36008e-36
-5.753e-34
5.77089e-32
-5.33972e-30
4.44253e-28
-3.12163e-26
1.45972e-24
4.6038e-23
-2.61929e-20
5.16867e-18
-8.68699e-16
1.5087e-13
-3.25331e-11
1.3251e-08
1.85118e-06
8.38962e-05
0.00188919
0.0188649
-2.1403e-39
2.82346e-37
-3.47601e-35
4.03837e-33
-4.40782e-31
4.4965e-29
-4.2608e-27
3.72315e-25
-2.97444e-23
2.15138e-21
-1.39485e-19
8.05775e-18
-4.18656e-16
2.03875e-14
-9.26677e-13
-4.75763e-12
3.78667e-08
5.01742e-06
0.000196334
0.00645391
-3.5752e-38
5.03022e-36
-6.64947e-34
8.35397e-32
-9.94447e-30
1.11767e-27
-1.18111e-25
1.16784e-23
-1.07417e-21
9.12705e-20
-7.1037e-18
5.01236e-16
-3.16541e-14
1.76068e-12
-8.45428e-11
3.41919e-09
-1.13261e-07
3.05894e-06
-5.17946e-05
0.00138544
-6.55721e-38
9.60408e-36
-1.32161e-33
1.72695e-31
-2.13501e-29
2.48601e-27
-2.71119e-25
2.75014e-23
-2.5724e-21
2.19506e-19
-1.68612e-17
1.14694e-15
-6.7724e-14
3.38985e-12
-1.3992e-10
4.61704e-09
-1.17711e-07
2.23121e-06
-2.97384e-05
0.000262112
-3.82171e-38
5.79715e-36
-8.26047e-34
1.11664e-31
-1.42602e-29
1.7113e-27
-1.91678e-25
1.98682e-23
-1.88553e-21
1.61659e-19
-1.23174e-17
8.17562e-16
-4.61615e-14
2.15666e-12
-8.07868e-11
2.34199e-09
-5.04663e-08
7.6888e-07
-7.6533e-06
4.02936e-05
-9.24358e-39
1.44436e-36
-2.12029e-34
2.95147e-32
-3.87821e-30
4.78205e-28
-5.49167e-26
5.81754e-24
-5.61681e-22
4.86923e-20
-3.72138e-18
2.45287e-16
-1.35874e-14
6.13941e-13
-2.18723e-11
5.90986e-10
-1.15634e-08
1.54059e-07
-1.26056e-06
4.78566e-06
-9.92538e-40
1.57991e-37
-2.36318e-35
3.35148e-33
-4.48544e-31
5.63018e-29
-6.57566e-27
7.0741e-25
-6.92162e-23
6.0635e-21
-4.66551e-19
3.08171e-17
-1.70124e-15
7.61107e-14
-2.66428e-12
7.00669e-11
-1.31701e-09
1.65039e-08
-1.21905e-07
3.75998e-07
)
;

boundaryField
{
    x0
    {
        type            fixedValue;
        value           uniform 0;
    }
    x1
    {
        type            inletOutlet;
        inletValue      uniform 0.0357;
        value           nonuniform List<scalar> 10(0.0357 0.0357 0.0357 0.0357 0.0357 0.00138544 0.000262112 4.02936e-05 4.78566e-06 3.75998e-07);
    }
    y0
    {
        type            zeroGradient;
    }
    y1
    {
        type            zeroGradient;
    }
    z0
    {
        type            empty;
    }
    z1
    {
        type            empty;
    }
}


// ************************************************************************* //
