/*--------------------------------*- C++ -*----------------------------------*\
  =========                 |
  \\      /  F ield         | OpenFOAM: The Open Source CFD Toolbox
   \\    /   O peration     | Website:  https://openfoam.org
    \\  /    A nd           | Version:  7
     \\/     M anipulation  |
\*---------------------------------------------------------------------------*/
FoamFile
{
    version     2.0;
    format      ascii;
    class       volScalarField;
    location    "480000";
    object      C_0;
}
// * * * * * * * * * * * * * * * * * * * * * * * * * * * * * * * * * * * * * //

dimensions      [0 0 0 0 0 0 0];

internalField   nonuniform List<scalar> 
200
(
-6.33435e-37
8.22111e-35
-1.00899e-32
1.18847e-30
-1.34401e-28
1.46185e-26
-1.53515e-24
1.56734e-22
-1.57451e-20
1.58861e-18
-1.66946e-16
1.95959e-14
-3.01332e-12
1.09377e-09
2.91197e-07
1.77999e-05
0.000426788
0.00436546
0.0190842
0.0375788
-6.02509e-38
7.90045e-36
-9.8012e-34
1.16722e-31
-1.33452e-29
1.46682e-27
-1.55459e-25
1.59761e-23
-1.60735e-21
1.60908e-19
-1.64823e-17
1.81811e-15
-2.40069e-13
5.09892e-11
4.85647e-08
4.15426e-06
0.000130453
0.00182064
0.0115006
0.032186
1.37338e-38
-1.83839e-36
2.32652e-34
-2.82281e-32
3.28288e-30
-3.66209e-28
3.9264e-26
-4.06281e-24
4.08664e-22
-4.04521e-20
4.02295e-18
-4.16647e-16
4.80194e-14
-7.08408e-12
2.01657e-09
4.44715e-07
2.39732e-05
0.000544907
0.00575865
0.0256608
3.83891e-40
-4.69264e-38
5.34681e-36
-5.73923e-34
5.75746e-32
-5.32753e-30
4.43236e-28
-3.11405e-26
1.45507e-24
4.62036e-23
-2.61799e-20
5.16437e-18
-8.67918e-16
1.50735e-13
-3.25051e-11
1.32402e-08
1.85001e-06
8.38565e-05
0.00188859
0.0188627
-2.13454e-39
2.81623e-37
-3.46755e-35
4.02908e-33
-4.39827e-31
4.48738e-29
-4.25277e-27
3.7167e-25
-2.96976e-23
2.14838e-21
-1.3932e-19
8.0503e-18
-4.18407e-16
2.03834e-14
-9.26922e-13
-4.68821e-12
3.78331e-08
5.01457e-06
0.000196247
0.00645201
-3.56546e-38
5.01714e-36
-6.63301e-34
8.33433e-32
-9.92234e-30
1.11533e-27
-1.17878e-25
1.16569e-23
-1.07232e-21
9.11251e-20
-7.0933e-18
5.00566e-16
-3.16159e-14
1.75878e-12
-8.44628e-11
3.41641e-09
-1.13184e-07
3.05723e-06
-5.17732e-05
0.00138493
-6.5386e-38
9.57799e-36
-1.31819e-33
1.72269e-31
-2.13e-29
2.48049e-27
-2.70551e-25
2.74473e-23
-2.56766e-21
2.19129e-19
-1.68343e-17
1.14526e-15
-6.76335e-14
3.38575e-12
-1.39769e-10
4.61266e-09
-1.17615e-07
2.22968e-06
-2.97218e-05
0.000261994
-3.8104e-38
5.78071e-36
-8.23806e-34
1.11375e-31
-1.42251e-29
1.7073e-27
-1.91253e-25
1.98267e-23
-1.88182e-21
1.61362e-19
-1.22963e-17
8.16265e-16
-4.60942e-14
2.15379e-12
-8.06897e-11
2.33948e-09
-5.04187e-08
7.68256e-07
-7.64809e-06
4.02714e-05
-9.21511e-39
1.44009e-36
-2.11429e-34
2.94348e-32
-3.86819e-30
4.77029e-28
-5.47884e-26
5.80468e-24
-5.6051e-22
4.85969e-20
-3.71456e-18
2.44869e-16
-1.35659e-14
6.13049e-13
-2.18433e-11
5.9028e-10
-1.1551e-08
1.53915e-07
-1.25955e-06
4.78251e-06
-9.89355e-40
1.57504e-37
-2.35619e-35
3.34198e-33
-4.47328e-31
5.61563e-29
-6.55949e-27
7.05758e-25
-6.90633e-23
6.05087e-21
-4.65638e-19
3.07607e-17
-1.69835e-15
7.59909e-14
-2.66043e-12
6.99747e-11
-1.31545e-09
1.64865e-08
-1.21793e-07
3.75713e-07
)
;

boundaryField
{
    x0
    {
        type            fixedValue;
        value           uniform 0;
    }
    x1
    {
        type            inletOutlet;
        inletValue      uniform 0.0357;
        value           nonuniform List<scalar> 10(0.0357 0.0357 0.0357 0.0357 0.0357 0.00138493 0.000261994 4.02714e-05 4.78251e-06 3.75713e-07);
    }
    y0
    {
        type            zeroGradient;
    }
    y1
    {
        type            zeroGradient;
    }
    z0
    {
        type            empty;
    }
    z1
    {
        type            empty;
    }
}


// ************************************************************************* //
