/*--------------------------------*- C++ -*----------------------------------*\
  =========                 |
  \\      /  F ield         | OpenFOAM: The Open Source CFD Toolbox
   \\    /   O peration     | Website:  https://openfoam.org
    \\  /    A nd           | Version:  7
     \\/     M anipulation  |
\*---------------------------------------------------------------------------*/
FoamFile
{
    version     2.0;
    format      ascii;
    class       surfaceScalarField;
    location    "480000";
    object      phi;
}
// * * * * * * * * * * * * * * * * * * * * * * * * * * * * * * * * * * * * * //

dimensions      [0 3 -1 0 0 0 0];

internalField   nonuniform List<scalar> 
370
(
6.56066e-06
3.93369e-08
6.51747e-06
4.31961e-08
6.46617e-06
5.12959e-08
6.40173e-06
6.44377e-08
6.31781e-06
8.39256e-08
6.20611e-06
1.11702e-07
6.05555e-06
1.50556e-07
5.85112e-06
2.04429e-07
5.57224e-06
2.78882e-07
5.19043e-06
3.81805e-07
4.66585e-06
5.24583e-07
3.94172e-06
7.24132e-07
2.93483e-06
1.00689e-06
1.51726e-06
1.41757e-06
-5.23785e-07
2.04105e-06
-3.58129e-06
3.05751e-06
-8.35196e-06
4.77066e-06
-1.50712e-05
6.71922e-06
-2.0348e-05
5.27681e-06
-9.95376e-07
6.56452e-06
7.48146e-08
6.52557e-06
8.21518e-08
6.47931e-06
9.75497e-08
6.42122e-06
1.22529e-07
6.34558e-06
1.59563e-07
6.24496e-06
2.12328e-07
6.10942e-06
2.86092e-07
5.92557e-06
3.88279e-07
5.67516e-06
5.29293e-07
5.33321e-06
7.23757e-07
4.8654e-06
9.92393e-07
4.22447e-06
1.36506e-06
3.34551e-06
1.88585e-06
2.14085e-06
2.62223e-06
5.00243e-07
3.68166e-06
-1.68079e-06
5.23854e-06
-4.43329e-06
7.52317e-06
-7.97403e-06
1.026e-05
-1.29071e-05
1.02099e-05
2.3147e-06
6.57186e-06
1.02955e-07
6.54096e-06
1.13047e-07
6.50429e-06
1.34222e-07
6.45825e-06
1.68567e-07
6.39835e-06
2.19468e-07
6.31872e-06
2.91953e-07
6.21161e-06
3.93206e-07
6.06659e-06
5.33301e-07
5.86962e-06
7.26256e-07
5.60185e-06
9.91535e-07
5.23806e-06
1.35618e-06
4.74527e-06
1.85785e-06
4.0819e-06
2.54922e-06
3.2003e-06
3.50383e-06
2.05872e-06
4.82323e-06
6.56279e-07
6.64098e-06
-9.22605e-07
9.10205e-06
-2.81126e-06
1.21486e-05
-6.59674e-06
1.39954e-05
7.07728e-06
6.58195e-06
1.21005e-07
6.56214e-06
1.32857e-07
6.53864e-06
1.57725e-07
6.50916e-06
1.98049e-07
6.47083e-06
2.57788e-07
6.41998e-06
3.42812e-07
6.3517e-06
4.61479e-07
6.25954e-06
6.25462e-07
6.1349e-06
8.50896e-07
5.96649e-06
1.15995e-06
5.73974e-06
1.58292e-06
5.43663e-06
2.16096e-06
5.03651e-06
2.94933e-06
4.5197e-06
4.02065e-06
3.87663e-06
5.4663e-06
3.12623e-06
7.39138e-06
2.33498e-06
9.8933e-06
1.49201e-06
1.29916e-05
-6.0817e-07
1.60956e-05
1.31694e-05
6.5938e-06
1.27201e-07
6.58701e-06
1.39652e-07
6.57896e-06
1.65772e-07
6.56889e-06
2.08115e-07
6.55586e-06
2.70824e-07
6.53864e-06
3.60028e-07
6.51569e-06
4.84435e-07
6.48498e-06
6.5617e-07
6.44396e-06
8.91917e-07
6.38946e-06
1.21445e-06
6.31778e-06
1.6546e-06
6.225e-06
2.25375e-06
6.10783e-06
3.06651e-06
5.96535e-06
4.16313e-06
5.80171e-06
5.62993e-06
5.6288e-06
7.56429e-06
5.46371e-06
1.00584e-05
5.29461e-06
1.31607e-05
4.59608e-06
1.67941e-05
1.85447e-05
6.60625e-06
1.20948e-07
6.61313e-06
1.32778e-07
6.62131e-06
1.57594e-07
6.6316e-06
1.97817e-07
6.64506e-06
2.57366e-07
6.66305e-06
3.42039e-07
6.68742e-06
4.60063e-07
6.72072e-06
6.22868e-07
6.76649e-06
8.46156e-07
6.82962e-06
1.15132e-06
6.91693e-06
1.56729e-06
7.03776e-06
2.13292e-06
7.20446e-06
2.89981e-06
7.43215e-06
3.93544e-06
7.73607e-06
5.32601e-06
8.12287e-06
7.1775e-06
8.56887e-06
9.61238e-06
8.97577e-06
1.27538e-05
9.03906e-06
1.67308e-05
2.09582e-05
6.61808e-06
1.02863e-07
6.63794e-06
1.12919e-07
6.66153e-06
1.34011e-07
6.69115e-06
1.68191e-07
6.72974e-06
2.18784e-07
6.78107e-06
2.90701e-07
6.85023e-06
3.90908e-07
6.94401e-06
5.29083e-07
7.07165e-06
7.18523e-07
7.24559e-06
9.77375e-07
7.48256e-06
1.33031e-06
7.80465e-06
1.81083e-06
8.24009e-06
2.46437e-06
8.82271e-06
3.35282e-06
9.58757e-06
4.56115e-06
1.05577e-05
6.2074e-06
1.17122e-05
8.45782e-06
1.29224e-05
1.15436e-05
1.38714e-05
1.57819e-05
2.12934e-05
6.62814e-06
7.47224e-08
6.65904e-06
8.20243e-08
6.69571e-06
9.73383e-08
6.74175e-06
1.22153e-07
6.80165e-06
1.58878e-07
6.88128e-06
2.11072e-07
6.9884e-06
2.83785e-07
7.13345e-06
3.84035e-07
7.3305e-06
5.21478e-07
7.59853e-06
7.09346e-07
7.96307e-06
9.65768e-07
8.45819e-06
1.31571e-06
9.12855e-06
1.79401e-06
1.0031e-05
2.45034e-06
1.12338e-05
3.35836e-06
1.2808e-05
4.63322e-06
1.47991e-05
6.46675e-06
1.71466e-05
9.19605e-06
1.95018e-05
1.34266e-05
2.00772e-05
6.63544e-06
3.92799e-08
6.67435e-06
4.31173e-08
6.72052e-06
5.11652e-08
6.77847e-06
6.4205e-08
6.85385e-06
8.35019e-08
6.95399e-06
1.10925e-07
7.08865e-06
1.49126e-07
7.2709e-06
2.01792e-07
7.51837e-06
2.74008e-07
7.85495e-06
3.72763e-07
8.31302e-06
5.07696e-07
8.93648e-06
6.92255e-07
9.78488e-06
9.45607e-07
1.09391e-05
1.29617e-06
1.25087e-05
1.78872e-06
1.46415e-05
2.50037e-06
1.75287e-05
3.57956e-06
2.13737e-05
5.35104e-06
2.61712e-05
8.62915e-06
1.57361e-05
6.63928e-06
6.6824e-06
6.73356e-06
6.79777e-06
6.88127e-06
6.99219e-06
7.14132e-06
7.34311e-06
7.61712e-06
7.98988e-06
8.49758e-06
9.18983e-06
1.01354e-05
1.14316e-05
1.32203e-05
1.57207e-05
1.93003e-05
2.46513e-05
3.32805e-05
)
;

boundaryField
{
    x0
    {
        type            calculated;
        value           nonuniform List<scalar> 10(-6.6e-06 -6.6e-06 -6.6e-06 -6.6e-06 -6.6e-06 -6.6e-06 -6.6e-06 -6.6e-06 -6.6e-06 -6.6e-06);
    }
    x1
    {
        type            calculated;
        value           nonuniform List<scalar> 10(-1.93526e-05 -1.62172e-05 -1.13593e-05 -6.70027e-06 -7.79255e-07 6.62553e-06 1.35363e-05 2.0718e-05 3.05123e-05 4.90166e-05);
    }
    y0
    {
        type            calculated;
        value           uniform 0;
    }
    y1
    {
        type            calculated;
        value           uniform 0;
    }
    z0
    {
        type            empty;
        value           nonuniform 0();
    }
    z1
    {
        type            empty;
        value           nonuniform 0();
    }
}


// ************************************************************************* //
