/*--------------------------------*- C++ -*----------------------------------*\
  =========                 |
  \\      /  F ield         | OpenFOAM: The Open Source CFD Toolbox
   \\    /   O peration     | Website:  https://openfoam.org
    \\  /    A nd           | Version:  7
     \\/     M anipulation  |
\*---------------------------------------------------------------------------*/
FoamFile
{
    version     2.0;
    format      ascii;
    class       volVectorField;
    location    "480000";
    object      Utheta;
}
// * * * * * * * * * * * * * * * * * * * * * * * * * * * * * * * * * * * * * //

dimensions      [0 1 -1 0 0 0 0];

internalField   nonuniform List<vector> 
200
(
(6.58033e-05 3.93369e-07 0)
(6.53906e-05 4.31961e-07 0)
(6.49182e-05 5.12959e-07 0)
(6.43395e-05 6.44377e-07 0)
(6.35977e-05 8.39256e-07 0)
(6.26196e-05 1.11702e-06 0)
(6.13083e-05 1.50556e-06 0)
(5.95333e-05 2.04429e-06 0)
(5.71168e-05 2.78882e-06 0)
(5.38134e-05 3.81805e-06 0)
(4.92814e-05 5.24583e-06 0)
(4.30378e-05 7.24132e-06 0)
(3.43827e-05 1.00689e-05 0)
(2.22605e-05 1.41757e-05 0)
(4.96737e-06 2.04105e-05 0)
(-2.05254e-05 3.05751e-05 0)
(-5.96663e-05 4.77066e-05 0)
(-0.000117116 6.71922e-05 0)
(-0.000177096 5.27681e-05 0)
(-0.000198503 -9.95376e-06 0)
(6.58226e-05 5.70758e-07 0)
(6.54504e-05 6.2674e-07 0)
(6.50244e-05 7.44228e-07 0)
(6.45027e-05 9.34835e-07 0)
(6.3834e-05 1.21744e-06 0)
(6.29527e-05 1.62015e-06 0)
(6.17719e-05 2.18324e-06 0)
(6.0175e-05 2.96354e-06 0)
(5.80037e-05 4.04088e-06 0)
(5.50419e-05 5.52781e-06 0)
(5.09931e-05 7.58488e-06 0)
(4.54494e-05 1.04459e-05 0)
(3.78499e-05 1.44637e-05 0)
(2.74318e-05 2.0199e-05 0)
(1.32055e-05 2.86135e-05 0)
(-5.90273e-06 4.14802e-05 0)
(-3.05704e-05 6.14692e-05 0)
(-6.20366e-05 8.48959e-05 0)
(-0.000104406 7.74337e-05 0)
(-0.000145622 6.5966e-06 0)
(6.58593e-05 8.88849e-07 0)
(6.55641e-05 9.75991e-07 0)
(6.52263e-05 1.15886e-06 0)
(6.48127e-05 1.45548e-06 0)
(6.4283e-05 1.89515e-06 0)
(6.35854e-05 2.52141e-06 0)
(6.26517e-05 3.39649e-06 0)
(6.1391e-05 4.6079e-06 0)
(5.96811e-05 6.27775e-06 0)
(5.73574e-05 8.57646e-06 0)
(5.41996e-05 1.17428e-05 0)
(4.99166e-05 1.61146e-05 0)
(4.41358e-05 2.21753e-05 0)
(3.6411e-05 3.06303e-05 0)
(2.62951e-05 4.25244e-05 0)
(1.3575e-05 5.93976e-05 0)
(-1.33163e-06 8.31261e-05 0)
(-1.86693e-05 0.000112043 0)
(-4.704e-05 0.000121027 0)
(-8.97803e-05 4.69599e-05 0)
(6.59098e-05 1.1198e-06 0)
(6.57205e-05 1.22952e-06 0)
(6.55039e-05 1.45973e-06 0)
(6.5239e-05 1.83308e-06 0)
(6.49e-05 2.38628e-06 0)
(6.44541e-05 3.17383e-06 0)
(6.38584e-05 4.27342e-06 0)
(6.30562e-05 5.79381e-06 0)
(6.19722e-05 7.88576e-06 0)
(6.0507e-05 1.07574e-05 0)
(5.85311e-05 1.46955e-05 0)
(5.58819e-05 2.00941e-05 0)
(5.23657e-05 2.74928e-05 0)
(4.7781e-05 3.76224e-05 0)
(4.19816e-05 5.14477e-05 0)
(3.50143e-05 7.01618e-05 0)
(2.73061e-05 9.49768e-05 0)
(1.9135e-05 0.000125701 0)
(4.41921e-06 0.000150455 0)
(-3.65422e-05 0.000101233 0)
(6.5969e-05 1.24103e-06 0)
(6.59041e-05 1.36255e-06 0)
(6.58298e-05 1.61748e-06 0)
(6.57393e-05 2.03082e-06 0)
(6.56238e-05 2.64306e-06 0)
(6.54725e-05 3.5142e-06 0)
(6.52716e-05 4.72957e-06 0)
(6.50033e-05 6.40816e-06 0)
(6.46447e-05 8.71407e-06 0)
(6.41671e-05 1.1872e-05 0)
(6.35362e-05 1.61876e-05 0)
(6.27139e-05 2.20736e-05 0)
(6.16641e-05 3.00792e-05 0)
(6.03659e-05 4.09189e-05 0)
(5.88353e-05 5.54812e-05 0)
(5.71526e-05 7.47784e-05 0)
(5.54626e-05 9.97584e-05 0)
(5.37916e-05 0.000130761 0)
(4.94535e-05 0.000164449 0)
(1.90841e-05 0.00015857 0)
(6.60313e-05 1.24074e-06 0)
(6.60969e-05 1.36215e-06 0)
(6.61722e-05 1.61683e-06 0)
(6.62645e-05 2.02966e-06 0)
(6.63833e-05 2.64095e-06 0)
(6.65406e-05 3.51033e-06 0)
(6.67524e-05 4.72249e-06 0)
(6.70407e-05 6.39519e-06 0)
(6.74361e-05 8.69037e-06 0)
(6.79805e-05 1.18288e-05 0)
(6.87327e-05 1.61094e-05 0)
(6.97734e-05 2.19333e-05 0)
(7.12111e-05 2.98316e-05 0)
(7.3183e-05 4.04929e-05 0)
(7.58411e-05 5.47797e-05 0)
(7.92947e-05 7.3709e-05 0)
(8.34587e-05 9.83538e-05 0)
(8.77232e-05 0.000129572 0)
(9.00741e-05 0.000167625 0)
(7.83229e-05 0.000197515 0)
(6.60904e-05 1.11905e-06 0)
(6.62801e-05 1.22849e-06 0)
(6.64974e-05 1.45803e-06 0)
(6.67634e-05 1.83004e-06 0)
(6.71044e-05 2.38075e-06 0)
(6.7554e-05 3.1637e-06 0)
(6.81565e-05 4.25485e-06 0)
(6.89712e-05 5.75976e-06 0)
(7.00783e-05 7.8234e-06 0)
(7.15862e-05 1.06435e-05 0)
(7.36407e-05 1.4488e-05 0)
(7.6436e-05 1.97187e-05 0)
(8.02237e-05 2.68209e-05 0)
(8.5314e-05 3.64413e-05 0)
(9.20514e-05 4.94358e-05 0)
(0.000100726 6.69245e-05 0)
(0.000111349 9.0351e-05 0)
(0.000123173 0.000121487 0)
(0.000133969 0.000162563 0)
(0.000137039 0.000211258 0)
(6.61407e-05 8.87927e-07 0)
(6.64359e-05 9.74717e-07 0)
(6.67737e-05 1.15675e-06 0)
(6.71873e-05 1.45172e-06 0)
(6.7717e-05 1.88831e-06 0)
(6.84147e-05 2.50886e-06 0)
(6.93484e-05 3.37347e-06 0)
(7.06093e-05 4.56559e-06 0)
(7.23198e-05 6.20001e-06 0)
(7.46451e-05 8.4336e-06 0)
(7.7808e-05 1.14804e-05 0)
(8.21063e-05 1.56327e-05 0)
(8.79337e-05 2.12919e-05 0)
(9.57979e-05 2.90158e-05 0)
(0.000106324 3.95975e-05 0)
(0.000120209 5.42031e-05 0)
(0.000138035 7.46229e-05 0)
(0.000159728 0.000103698 0)
(0.000183242 0.000146042 0)
(0.000201099 0.000206853 0)
(6.61772e-05 5.70012e-07 0)
(6.6549e-05 6.25708e-07 0)
(6.69744e-05 7.42517e-07 0)
(6.7495e-05 9.3179e-07 0)
(6.81616e-05 1.2119e-06 0)
(6.90392e-05 1.60999e-06 0)
(7.02132e-05 2.16455e-06 0)
(7.17977e-05 2.92913e-06 0)
(7.39463e-05 3.97743e-06 0)
(7.68666e-05 5.41054e-06 0)
(8.08398e-05 7.36732e-06 0)
(8.62475e-05 1.00398e-05 0)
(9.36068e-05 1.36981e-05 0)
(0.00010362 1.87325e-05 0)
(0.000117239 2.57354e-05 0)
(0.000135751 3.5668e-05 0)
(0.000160851 5.02316e-05 0)
(0.000194512 7.27355e-05 0)
(0.000237725 0.000110279 0)
(0.000283417 0.000179066 0)
(6.61964e-05 3.92799e-07 0)
(6.66084e-05 4.31173e-07 0)
(6.70798e-05 5.11652e-07 0)
(6.76566e-05 6.4205e-07 0)
(6.83952e-05 8.35019e-07 0)
(6.93673e-05 1.10925e-06 0)
(7.06676e-05 1.49126e-06 0)
(7.24222e-05 2.01792e-06 0)
(7.48012e-05 2.74008e-06 0)
(7.8035e-05 3.72763e-06 0)
(8.24373e-05 5.07696e-06 0)
(8.84371e-05 6.92255e-06 0)
(9.66264e-05 9.45607e-06 0)
(0.000107835 1.29617e-05 0)
(0.00012326 1.78872e-05 0)
(0.000144705 2.50037e-05 0)
(0.000175105 3.57956e-05 0)
(0.000219758 5.35104e-05 0)
(0.000289659 8.62915e-05 0)
(0.000411485 0.000157361 0)
)
;

boundaryField
{
    x0
    {
        type            fixedValue;
        value           uniform (6.6e-05 0 0);
    }
    x1
    {
        type            zeroGradient;
    }
    y0
    {
        type            zeroGradient;
    }
    y1
    {
        type            zeroGradient;
    }
    z0
    {
        type            empty;
    }
    z1
    {
        type            empty;
    }
}


// ************************************************************************* //
