/*--------------------------------*- C++ -*----------------------------------*\
  =========                 |
  \\      /  F ield         | OpenFOAM: The Open Source CFD Toolbox
   \\    /   O peration     | Website:  https://openfoam.org
    \\  /    A nd           | Version:  7
     \\/     M anipulation  |
\*---------------------------------------------------------------------------*/
FoamFile
{
    version     2.0;
    format      ascii;
    class       volScalarField;
    location    "600000";
    object      C;
}
// * * * * * * * * * * * * * * * * * * * * * * * * * * * * * * * * * * * * * //

dimensions      [0 0 0 0 0 0 0];

internalField   nonuniform List<scalar> 
200
(
-5.24817e-35
5.47714e-33
-5.38575e-31
5.08337e-29
-4.60733e-27
4.01734e-25
-3.38316e-23
2.77132e-21
-2.2354e-19
1.81331e-17
-1.53575e-15
1.46026e-13
-1.84503e-11
5.99528e-09
1.15564e-06
5.37639e-05
0.00097413
0.00741922
0.0245508
0.0390508
-6.28275e-36
6.63419e-34
-6.60537e-32
6.31562e-30
-5.80014e-28
5.12377e-26
-4.36776e-24
3.61396e-22
-2.93163e-20
2.3712e-18
-1.96883e-16
1.7701e-14
-1.92594e-12
3.48082e-10
2.00982e-07
1.30306e-05
0.000313281
0.00332593
0.0158177
0.0348262
1.17715e-36
-1.27146e-34
1.29381e-32
-1.26241e-30
1.1809e-28
-1.05987e-26
9.14703e-25
-7.6239e-23
6.18392e-21
-4.94497e-19
3.98463e-17
-3.36086e-15
3.18351e-13
-3.9284e-11
9.76118e-09
1.53675e-06
6.28286e-05
0.00109264
0.00865487
0.0290087
4.68889e-38
-4.81223e-36
4.63205e-34
-4.25287e-32
3.71331e-30
-3.071e-28
2.39132e-26
-1.73523e-24
1.14913e-22
-6.58803e-21
2.67409e-19
4.43439e-18
-3.22516e-15
6.71867e-13
-1.45706e-10
5.70292e-08
5.7225e-06
0.000194674
0.00328192
0.0227307
-2.66098e-37
2.79598e-35
-2.72327e-33
2.49321e-31
-2.13276e-29
1.69178e-27
-1.23191e-25
8.11849e-24
-4.73724e-22
2.35517e-20
-9.16124e-19
2.03655e-17
5.3156e-16
-8.96923e-14
6.1235e-12
-5.02296e-10
1.75323e-07
1.38759e-05
0.000437103
0.0102742
-4.63996e-36
5.23794e-34
-5.53382e-32
5.55365e-30
-5.27788e-28
4.73243e-26
-3.98659e-24
3.1393e-22
-2.2972e-20
1.55102e-18
-9.58042e-17
5.35771e-15
-2.67815e-13
1.1777e-11
-4.46706e-10
1.42752e-08
-3.74972e-07
8.22102e-06
-0.000106822
0.00261085
-1.04255e-35
1.22621e-33
-1.35027e-31
1.4116e-29
-1.39582e-27
1.29956e-25
-1.13278e-23
9.17957e-22
-6.85531e-20
4.66692e-18
-2.85737e-16
1.54744e-14
-7.26459e-13
2.88627e-11
-9.44013e-10
2.46485e-08
-4.97189e-07
7.48031e-06
-7.97895e-05
0.000581155
-7.5294e-36
9.17198e-34
-1.04603e-31
1.13153e-29
-1.15611e-27
1.10969e-25
-9.93818e-24
8.23314e-22
-6.24133e-20
4.27155e-18
-2.59583e-16
1.37276e-14
-6.16779e-13
2.28974e-11
-6.80495e-10
1.56276e-08
-2.66471e-07
3.21258e-06
-2.53687e-05
0.000106314
-2.26096e-36
2.83657e-34
-3.33243e-32
3.71169e-30
-3.90155e-28
3.84744e-26
-3.53235e-24
2.99028e-22
-2.30589e-20
1.59549e-18
-9.72457e-17
5.10686e-15
-2.25135e-13
8.08566e-12
-2.28643e-10
4.89604e-09
-7.57875e-08
7.97107e-07
-5.13114e-06
1.50851e-05
-3.04399e-37
3.88896e-35
-4.65362e-33
5.27869e-31
-5.64901e-29
5.66792e-27
-5.28929e-25
4.5443e-23
-3.54875e-21
2.47936e-19
-1.52013e-17
7.99276e-16
-3.50821e-14
1.24625e-12
-3.45872e-11
7.19805e-10
-1.06795e-08
1.05199e-07
-6.05562e-07
1.4063e-06
)
;

boundaryField
{
    x0
    {
        type            fixedValue;
        value           uniform 0;
    }
    x1
    {
        type            inletOutlet;
        inletValue      uniform 0.0357;
        value           nonuniform List<scalar> 10(0.0357 0.0357 0.0357 0.0357 0.0357 0.00261085 0.000581155 0.000106314 1.50851e-05 1.4063e-06);
    }
    y0
    {
        type            zeroGradient;
    }
    y1
    {
        type            zeroGradient;
    }
    z0
    {
        type            empty;
    }
    z1
    {
        type            empty;
    }
}


// ************************************************************************* //
