/*--------------------------------*- C++ -*----------------------------------*\
  =========                 |
  \\      /  F ield         | OpenFOAM: The Open Source CFD Toolbox
   \\    /   O peration     | Website:  https://openfoam.org
    \\  /    A nd           | Version:  7
     \\/     M anipulation  |
\*---------------------------------------------------------------------------*/
FoamFile
{
    version     2.0;
    format      ascii;
    class       volScalarField;
    location    "600000";
    object      C_0;
}
// * * * * * * * * * * * * * * * * * * * * * * * * * * * * * * * * * * * * * //

dimensions      [0 0 0 0 0 0 0];

internalField   nonuniform List<scalar> 
200
(
-5.23781e-35
5.46686e-33
-5.37618e-31
5.07483e-29
-4.60005e-27
4.0114e-25
-3.37848e-23
2.76776e-21
-2.23275e-19
1.81134e-17
-1.53422e-15
1.45895e-13
-1.84353e-11
5.99066e-09
1.15492e-06
5.37373e-05
0.000973774
0.00741753
0.0245483
0.0390504
-6.2697e-36
6.62106e-34
-6.59294e-32
6.30435e-30
-5.79036e-28
5.11563e-26
-4.36125e-24
3.60892e-22
-2.92782e-20
2.36835e-18
-1.96664e-16
1.7683e-14
-1.92414e-12
3.47781e-10
2.00854e-07
1.3024e-05
0.000313159
0.00332506
0.0158156
0.0348252
1.17482e-36
-1.26906e-34
1.2915e-32
-1.26028e-30
1.17902e-28
-1.05829e-26
9.13423e-25
-7.61398e-23
6.17646e-21
-4.93948e-19
3.98058e-17
-3.35775e-15
3.18084e-13
-3.92541e-11
9.75426e-09
1.53589e-06
6.28016e-05
0.00109231
0.00865337
0.0290073
4.67876e-38
-4.80221e-36
4.62277e-34
-4.24466e-32
3.7064e-30
-3.06548e-28
2.38715e-26
-1.73227e-24
1.14719e-22
-6.57637e-21
2.66816e-19
4.45306e-18
-3.22402e-15
6.7146e-13
-1.45611e-10
5.6992e-08
5.71961e-06
0.000194601
0.00328113
0.022729
-2.65521e-37
2.79021e-35
-2.71793e-33
2.48859e-31
-2.12905e-29
1.68903e-27
-1.23006e-25
8.10735e-24
-4.73147e-22
2.35278e-20
-9.15508e-19
2.0375e-17
5.29119e-16
-8.95095e-14
6.1139e-12
-5.0177e-10
1.75207e-07
1.38696e-05
0.000436945
0.0102723
-4.62986e-36
5.22705e-34
-5.52288e-32
5.54322e-30
-5.26851e-28
4.72451e-26
-3.98032e-24
3.13469e-22
-2.29406e-20
1.54907e-18
-9.56933e-17
5.35207e-15
-2.67562e-13
1.17671e-11
-4.46379e-10
1.42662e-08
-3.74774e-07
8.21742e-06
-0.000106789
0.00261014
-1.04019e-35
1.22356e-33
-1.34748e-31
1.40882e-29
-1.39322e-27
1.29726e-25
-1.13089e-23
9.16519e-22
-6.84526e-20
4.66055e-18
-2.85376e-16
1.54565e-14
-7.25692e-13
2.88353e-11
-9.43214e-10
2.46303e-08
-4.96872e-07
7.47631e-06
-7.97548e-05
0.000580952
-7.51162e-36
9.15122e-34
-1.04376e-31
1.12919e-29
-1.15384e-27
1.10762e-25
-9.92065e-24
8.21945e-22
-6.23158e-20
4.26531e-18
-2.5923e-16
1.37103e-14
-6.16067e-13
2.28733e-11
-6.79851e-10
1.56145e-08
-2.66275e-07
3.21056e-06
-2.53553e-05
0.000106269
-2.2554e-36
2.82988e-34
-3.3249e-32
3.70367e-30
-3.89351e-28
3.8399e-26
-3.52578e-24
2.98502e-22
-2.30206e-20
1.59301e-18
-9.71042e-17
5.09995e-15
-2.24854e-13
8.07639e-12
-2.28405e-10
4.89145e-09
-7.57245e-08
7.96529e-07
-5.12797e-06
1.50775e-05
-3.0362e-37
3.87939e-35
-4.64263e-33
5.26675e-31
-5.6368e-29
5.65624e-27
-5.27893e-25
4.53586e-23
-3.54251e-21
2.47526e-19
-1.51777e-17
7.98116e-16
-3.50348e-14
1.2447e-12
-3.45478e-11
7.19061e-10
-1.06696e-08
1.05113e-07
-6.05135e-07
1.40549e-06
)
;

boundaryField
{
    x0
    {
        type            fixedValue;
        value           uniform 0;
    }
    x1
    {
        type            inletOutlet;
        inletValue      uniform 0.0357;
        value           nonuniform List<scalar> 10(0.0357 0.0357 0.0357 0.0357 0.0357 0.00261014 0.000580952 0.000106269 1.50775e-05 1.40549e-06);
    }
    y0
    {
        type            zeroGradient;
    }
    y1
    {
        type            zeroGradient;
    }
    z0
    {
        type            empty;
    }
    z1
    {
        type            empty;
    }
}


// ************************************************************************* //
