/*--------------------------------*- C++ -*----------------------------------*\
  =========                 |
  \\      /  F ield         | OpenFOAM: The Open Source CFD Toolbox
   \\    /   O peration     | Website:  https://openfoam.org
    \\  /    A nd           | Version:  7
     \\/     M anipulation  |
\*---------------------------------------------------------------------------*/
FoamFile
{
    version     2.0;
    format      ascii;
    class       surfaceScalarField;
    location    "600000";
    object      phi;
}
// * * * * * * * * * * * * * * * * * * * * * * * * * * * * * * * * * * * * * //

dimensions      [0 3 -1 0 0 0 0];

internalField   nonuniform List<scalar> 
370
(
6.5603e-06
3.96993e-08
6.5167e-06
4.3597e-08
6.46492e-06
5.17787e-08
6.39987e-06
6.50568e-08
6.31511e-06
8.47547e-08
6.20227e-06
1.12847e-07
6.05009e-06
1.52174e-07
5.84332e-06
2.0677e-07
5.56097e-06
2.82352e-07
5.17387e-06
3.871e-07
4.6409e-06
5.32965e-07
3.90287e-06
7.38036e-07
2.87149e-06
1.03138e-06
1.40735e-06
1.46414e-06
-7.30957e-07
2.13831e-06
-4.00234e-06
3.27138e-06
-9.10682e-06
5.10448e-06
-1.55748e-05
6.468e-06
-1.91817e-05
3.60686e-06
-1.85492e-06
6.5642e-06
7.55009e-08
6.52489e-06
8.291e-08
6.4782e-06
9.8461e-08
6.41957e-06
1.23694e-07
6.34321e-06
1.61115e-07
6.24159e-06
2.14458e-07
6.10469e-06
2.89081e-07
5.9189e-06
3.92554e-07
5.66572e-06
5.35536e-07
5.31973e-06
7.33085e-07
4.84598e-06
1.00672e-06
4.19621e-06
1.3878e-06
3.30426e-06
1.92332e-06
2.08199e-06
2.68642e-06
4.25011e-07
3.79528e-06
-1.74219e-06
5.43858e-06
-4.43381e-06
7.7961e-06
-8.06851e-06
1.01027e-05
-1.29143e-05
8.45267e-06
5.80576e-07
6.57161e-06
1.03893e-07
6.54044e-06
1.14081e-07
6.50344e-06
1.35461e-07
6.45699e-06
1.70143e-07
6.39655e-06
2.21554e-07
6.31622e-06
2.9479e-07
6.20816e-06
3.97137e-07
6.06188e-06
5.38831e-07
5.86327e-06
7.34152e-07
5.59337e-06
1.00298e-06
5.22706e-06
1.37304e-06
4.73173e-06
1.88313e-06
4.06736e-06
2.58769e-06
3.19093e-06
3.56285e-06
2.07333e-06
4.91288e-06
7.41818e-07
6.7701e-06
-7.12707e-07
9.25062e-06
-2.70047e-06
1.20905e-05
-7.00917e-06
1.27614e-05
4.78508e-06
6.5818e-06
1.22098e-07
6.56182e-06
1.3406e-07
6.53812e-06
1.5916e-07
6.5084e-06
1.99862e-07
6.46978e-06
2.60168e-07
6.41856e-06
3.46011e-07
6.34986e-06
4.65844e-07
6.25721e-06
6.31481e-07
6.1321e-06
8.5926e-07
5.96344e-06
1.17164e-06
5.73715e-06
1.59933e-06
5.43628e-06
2.184e-06
5.04252e-06
2.98144e-06
4.54097e-06
4.0644e-06
3.9311e-06
5.52275e-06
3.24577e-06
7.45543e-06
2.55358e-06
9.94281e-06
1.69709e-06
1.2947e-05
-1.05483e-06
1.55133e-05
1.07494e-05
6.59376e-06
1.2834e-07
6.58692e-06
1.40902e-07
6.57882e-06
1.67255e-07
6.5687e-06
2.09977e-07
6.55563e-06
2.73245e-07
6.5384e-06
3.63242e-07
6.51549e-06
4.88749e-07
6.48498e-06
6.61989e-07
6.44448e-06
8.99767e-07
6.39113e-06
1.22499e-06
6.32182e-06
1.66864e-06
6.23372e-06
2.2721e-06
6.12548e-06
3.08969e-06
5.99931e-06
4.19057e-06
5.8638e-06
5.65825e-06
5.73519e-06
7.58404e-06
5.62863e-06
1.00494e-05
5.4918e-06
1.30838e-05
4.43043e-06
1.65747e-05
1.68187e-05
6.60632e-06
1.22021e-07
6.61327e-06
1.33953e-07
6.62154e-06
1.58982e-07
6.63197e-06
1.99546e-07
6.64562e-06
2.59594e-07
6.6639e-06
3.44961e-07
6.68873e-06
4.63921e-07
6.72276e-06
6.27959e-07
6.76971e-06
8.52825e-07
6.83477e-06
1.15993e-06
6.92527e-06
1.57814e-06
7.05131e-06
2.14606e-06
7.22637e-06
2.91463e-06
7.46698e-06
3.94996e-06
7.7896e-06
5.33563e-06
8.20044e-06
7.1732e-06
8.67085e-06
9.57896e-06
9.09049e-06
1.26642e-05
9.0678e-06
1.65974e-05
2.02005e-05
6.61825e-06
1.03768e-07
6.6383e-06
1.13908e-07
6.66211e-06
1.35174e-07
6.69202e-06
1.69632e-07
6.73099e-06
2.20625e-07
6.78286e-06
2.93088e-07
6.85277e-06
3.94013e-07
6.94763e-06
5.33101e-07
7.07681e-06
7.23646e-07
7.25299e-06
9.8375e-07
7.49319e-06
1.33794e-06
7.81988e-06
1.81936e-06
8.2617e-06
2.47281e-06
8.85265e-06
3.35901e-06
9.62719e-06
4.56108e-06
1.06059e-05
6.19451e-06
1.17618e-05
8.42301e-06
1.29529e-05
1.14731e-05
1.38531e-05
1.56972e-05
2.1022e-05
6.62839e-06
7.53755e-08
6.65956e-06
8.27367e-08
6.69656e-06
9.81736e-08
6.74301e-06
1.23183e-07
6.80345e-06
1.60184e-07
6.88379e-06
2.12752e-07
6.99186e-06
2.85945e-07
7.13817e-06
3.86785e-07
7.33691e-06
5.24909e-07
7.60717e-06
7.13487e-07
7.97461e-06
9.70501e-07
8.47333e-06
1.32064e-06
9.14791e-06
1.79824e-06
1.00547e-05
2.45221e-06
1.12606e-05
3.35515e-06
1.28341e-05
4.62104e-06
1.48159e-05
6.44119e-06
1.71365e-05
9.15255e-06
1.94552e-05
1.33784e-05
1.99909e-05
6.63575e-06
3.96218e-08
6.675e-06
4.34899e-08
6.72157e-06
5.1601e-08
6.78002e-06
6.47406e-08
6.85602e-06
8.41788e-08
6.95698e-06
1.1179e-07
7.0927e-06
1.5023e-07
7.2763e-06
2.03183e-07
7.52549e-06
2.7572e-07
7.86419e-06
3.74786e-07
8.32475e-06
5.09938e-07
8.95093e-06
6.94466e-07
9.80188e-06
9.47285e-07
1.09576e-05
1.29644e-06
1.25265e-05
1.78626e-06
1.46541e-05
2.49345e-06
1.75288e-05
3.56652e-06
2.13503e-05
5.33107e-06
2.61208e-05
8.60787e-06
1.57119e-05
6.63962e-06
6.68311e-06
6.73471e-06
6.79945e-06
6.88363e-06
6.99542e-06
7.14565e-06
7.34884e-06
7.62455e-06
7.99934e-06
8.50928e-06
9.20375e-06
1.0151e-05
1.14475e-05
1.32337e-05
1.57272e-05
1.92937e-05
2.46248e-05
3.32326e-05
)
;

boundaryField
{
    x0
    {
        type            calculated;
        value           nonuniform List<scalar> 10(-6.6e-06 -6.6e-06 -6.6e-06 -6.6e-06 -6.6e-06 -6.6e-06 -6.6e-06 -6.6e-06 -6.6e-06 -6.6e-06);
    }
    x1
    {
        type            calculated;
        value           nonuniform List<scalar> 10(-1.73268e-05 -1.53498e-05 -1.12137e-05 -7.01918e-06 -1.63887e-06 5.68606e-06 1.30315e-05 2.04864e-05 3.03998e-05 4.89445e-05);
    }
    y0
    {
        type            calculated;
        value           uniform 0;
    }
    y1
    {
        type            calculated;
        value           uniform 0;
    }
    z0
    {
        type            empty;
        value           nonuniform 0();
    }
    z1
    {
        type            empty;
        value           nonuniform 0();
    }
}


// ************************************************************************* //
