/*--------------------------------*- C++ -*----------------------------------*\
  =========                 |
  \\      /  F ield         | OpenFOAM: The Open Source CFD Toolbox
   \\    /   O peration     | Website:  https://openfoam.org
    \\  /    A nd           | Version:  7
     \\/     M anipulation  |
\*---------------------------------------------------------------------------*/
FoamFile
{
    version     2.0;
    format      ascii;
    class       volVectorField;
    location    "600000";
    object      Utheta;
}
// * * * * * * * * * * * * * * * * * * * * * * * * * * * * * * * * * * * * * //

dimensions      [0 1 -1 0 0 0 0];

internalField   nonuniform List<vector> 
200
(
(6.58015e-05 3.96993e-07 0)
(6.5385e-05 4.3597e-07 0)
(6.49081e-05 5.17787e-07 0)
(6.4324e-05 6.50568e-07 0)
(6.35749e-05 8.47547e-07 0)
(6.25869e-05 1.12847e-06 0)
(6.12618e-05 1.52174e-06 0)
(5.94671e-05 2.0677e-06 0)
(5.70215e-05 2.82352e-06 0)
(5.36742e-05 3.871e-06 0)
(4.90739e-05 5.32965e-06 0)
(4.27189e-05 7.38036e-06 0)
(3.38718e-05 1.03138e-05 0)
(2.13942e-05 1.46414e-05 0)
(3.38197e-06 2.13831e-05 0)
(-2.36665e-05 3.27138e-05 0)
(-6.55458e-05 5.10448e-05 0)
(-0.000123408 6.468e-05 0)
(-0.000173782 3.60686e-05 0)
(-0.000182542 -1.85492e-05 0)
(6.5821e-05 5.76001e-07 0)
(6.54454e-05 6.32535e-07 0)
(6.50154e-05 7.51198e-07 0)
(6.44888e-05 9.43754e-07 0)
(6.38139e-05 1.22935e-06 0)
(6.2924e-05 1.63653e-06 0)
(6.17314e-05 2.20628e-06 0)
(6.0118e-05 2.99662e-06 0)
(5.79231e-05 4.08944e-06 0)
(5.49273e-05 5.60093e-06 0)
(5.08286e-05 7.69845e-06 0)
(4.52109e-05 1.06292e-05 0)
(3.75024e-05 1.47735e-05 0)
(2.69313e-05 2.07528e-05 0)
(1.2535e-05 2.9668e-05 0)
(-6.58588e-06 4.35498e-05 0)
(-3.088e-05 6.45029e-05 0)
(-6.25116e-05 8.28535e-05 0)
(-0.000104914 6.02976e-05 0)
(-0.000141321 -6.37171e-06 0)
(6.5858e-05 8.96971e-07 0)
(6.55602e-05 9.84956e-07 0)
(6.52194e-05 1.16961e-06 0)
(6.48021e-05 1.46918e-06 0)
(6.42677e-05 1.91335e-06 0)
(6.35638e-05 2.54624e-06 0)
(6.26219e-05 3.43109e-06 0)
(6.13502e-05 4.65693e-06 0)
(5.96258e-05 6.34844e-06 0)
(5.72832e-05 8.68033e-06 0)
(5.41021e-05 1.18988e-05 0)
(4.97939e-05 1.63547e-05 0)
(4.39954e-05 2.2555e-05 0)
(3.62914e-05 3.12463e-05 0)
(2.63213e-05 4.35408e-05 0)
(1.40757e-05 6.10434e-05 0)
(1.45556e-07 8.52336e-05 0)
(-1.70659e-05 0.000110966 0)
(-4.85482e-05 0.00010607 0)
(-9.11142e-05 2.68283e-05 0)
(6.5909e-05 1.12996e-06 0)
(6.57181e-05 1.24071e-06 0)
(6.54997e-05 1.4731e-06 0)
(6.52326e-05 1.85002e-06 0)
(6.48909e-05 2.40861e-06 0)
(6.44417e-05 3.204e-06 0)
(6.38421e-05 4.31491e-06 0)
(6.30353e-05 5.85156e-06 0)
(6.19465e-05 7.96706e-06 0)
(6.04777e-05 1.08731e-05 0)
(5.85029e-05 1.48619e-05 0)
(5.58671e-05 2.03357e-05 0)
(5.2394e-05 2.78457e-05 0)
(4.79174e-05 3.81363e-05 0)
(4.23603e-05 5.21781e-05 0)
(3.58843e-05 7.11276e-05 0)
(2.89967e-05 9.59672e-05 0)
(2.12534e-05 0.000125187 0)
(3.2113e-06 0.000141373 0)
(-4.037e-05 7.76725e-05 0)
(6.59688e-05 1.25219e-06 0)
(6.59034e-05 1.37481e-06 0)
(6.58287e-05 1.63208e-06 0)
(6.57376e-05 2.0492e-06 0)
(6.56217e-05 2.66707e-06 0)
(6.54701e-05 3.54626e-06 0)
(6.52694e-05 4.77297e-06 0)
(6.50024e-05 6.46735e-06 0)
(6.46473e-05 8.79514e-06 0)
(6.4178e-05 1.19832e-05 0)
(6.35647e-05 1.63399e-05 0)
(6.27777e-05 2.22805e-05 0)
(6.1796e-05 3.03557e-05 0)
(6.06239e-05 4.12749e-05 0)
(5.93156e-05 5.5905e-05 0)
(5.7995e-05 7.51974e-05 0)
(5.68191e-05 9.99609e-05 0)
(5.56021e-05 0.000130154 0)
(4.96111e-05 0.00016044 0)
(1.39578e-05 0.000137841 0)
(6.60316e-05 1.2518e-06 0)
(6.60979e-05 1.37428e-06 0)
(6.61741e-05 1.63119e-06 0)
(6.62676e-05 2.04762e-06 0)
(6.6388e-05 2.6642e-06 0)
(6.65476e-05 3.54101e-06 0)
(6.67632e-05 4.76335e-06 0)
(6.70575e-05 6.44974e-06 0)
(6.74623e-05 8.76296e-06 0)
(6.80224e-05 1.19246e-05 0)
(6.88002e-05 1.62339e-05 0)
(6.98829e-05 2.20908e-05 0)
(7.13884e-05 3.00216e-05 0)
(7.34668e-05 4.07027e-05 0)
(7.62829e-05 5.49694e-05 0)
(7.99502e-05 7.37862e-05 0)
(8.43565e-05 9.81417e-05 0)
(8.88067e-05 0.00012874 0)
(9.07914e-05 0.00016586 0)
(7.37693e-05 0.000185096 0)
(6.60913e-05 1.12894e-06 0)
(6.62828e-05 1.23931e-06 0)
(6.6502e-05 1.47078e-06 0)
(6.67706e-05 1.84589e-06 0)
(6.71151e-05 2.40109e-06 0)
(6.75693e-05 3.19024e-06 0)
(6.81782e-05 4.28967e-06 0)
(6.9002e-05 5.8053e-06 0)
(7.01222e-05 7.88235e-06 0)
(7.1649e-05 1.07184e-05 0)
(7.37309e-05 1.45804e-05 0)
(7.65654e-05 1.98271e-05 0)
(8.04079e-05 2.69372e-05 0)
(8.55717e-05 3.65449e-05 0)
(9.23992e-05 4.94835e-05 0)
(0.000101165 6.68386e-05 0)
(0.000111839 9.00099e-05 0)
(0.000123574 0.000120686 0)
(0.00013403 0.000161473 0)
(0.000134423 0.000206112 0)
(6.6142e-05 8.95718e-07 0)
(6.64398e-05 9.83224e-07 0)
(6.67806e-05 1.16674e-06 0)
(6.71979e-05 1.46407e-06 0)
(6.77323e-05 1.90405e-06 0)
(6.84362e-05 2.5292e-06 0)
(6.93782e-05 3.39979e-06 0)
(7.06502e-05 4.59943e-06 0)
(7.23754e-05 6.24278e-06 0)
(7.47204e-05 8.48618e-06 0)
(7.79089e-05 1.15422e-05 0)
(8.22397e-05 1.57e-05 0)
(8.81062e-05 2.13552e-05 0)
(9.60131e-05 2.90561e-05 0)
(0.000106577 3.95811e-05 0)
(0.000120474 5.40778e-05 0)
(0.00013825 7.4321e-05 0)
(0.000159762 0.000103128 0)
(0.000182959 0.000145378 0)
(0.000199708 0.000205065 0)
(6.61788e-05 5.74987e-07 0)
(6.65538e-05 6.31133e-07 0)
(6.69829e-05 7.48873e-07 0)
(6.75079e-05 9.39616e-07 0)
(6.81802e-05 1.22182e-06 0)
(6.9065e-05 1.62271e-06 0)
(7.02484e-05 2.18087e-06 0)
(7.1845e-05 2.94984e-06 0)
(7.40089e-05 4.00314e-06 0)
(7.69484e-05 5.44136e-06 0)
(8.09447e-05 7.4022e-06 0)
(8.63784e-05 1.00755e-05 0)
(9.3764e-05 1.37276e-05 0)
(0.000103798 1.87432e-05 0)
(0.000117421 2.5707e-05 0)
(0.000135903 3.55724e-05 0)
(0.000160915 5.00386e-05 0)
(0.000194395 7.24181e-05 0)
(0.000237356 0.000109931 0)
(0.000282603 0.000178514 0)
(6.61981e-05 3.96218e-07 0)
(6.66137e-05 4.34899e-07 0)
(6.70891e-05 5.1601e-07 0)
(6.76708e-05 6.47406e-07 0)
(6.84154e-05 8.41788e-07 0)
(6.93953e-05 1.1179e-06 0)
(7.07054e-05 1.5023e-06 0)
(7.24724e-05 2.03183e-06 0)
(7.4867e-05 2.7572e-06 0)
(7.81195e-05 3.74786e-06 0)
(8.25431e-05 5.09938e-06 0)
(8.85651e-05 6.94466e-06 0)
(9.67739e-05 9.47285e-06 0)
(0.000107993 1.29644e-05 0)
(0.000123406 1.78626e-05 0)
(0.000144805 2.49345e-05 0)
(0.000175104 3.56652e-05 0)
(0.000219592 5.33107e-05 0)
(0.000289287 8.60787e-05 0)
(0.000410886 0.000157119 0)
)
;

boundaryField
{
    x0
    {
        type            fixedValue;
        value           uniform (6.6e-05 0 0);
    }
    x1
    {
        type            zeroGradient;
    }
    y0
    {
        type            zeroGradient;
    }
    y1
    {
        type            zeroGradient;
    }
    z0
    {
        type            empty;
    }
    z1
    {
        type            empty;
    }
}


// ************************************************************************* //
