/*--------------------------------*- C++ -*----------------------------------*\
  =========                 |
  \\      /  F ield         | OpenFOAM: The Open Source CFD Toolbox
   \\    /   O peration     | Website:  https://openfoam.org
    \\  /    A nd           | Version:  7
     \\/     M anipulation  |
\*---------------------------------------------------------------------------*/
FoamFile
{
    version     2.0;
    format      ascii;
    class       volScalarField;
    location    "420000";
    object      C;
}
// * * * * * * * * * * * * * * * * * * * * * * * * * * * * * * * * * * * * * //

dimensions      [0 0 0 0 0 0 0];

internalField   nonuniform List<scalar> 
200
(
-4.50633e-38
6.66456e-36
-9.33765e-34
1.25549e-31
-1.6205e-29
2.01144e-27
-2.41001e-25
2.80654e-23
-3.21442e-21
3.69502e-19
-4.41856e-17
5.88674e-15
-1.02054e-12
4.02686e-10
1.28672e-07
9.1945e-06
0.000258473
0.00312723
0.0161212
0.0362828
-3.73554e-39
5.57731e-37
-7.89169e-35
1.0717e-32
-1.3969e-30
1.74984e-28
-2.11274e-26
2.47217e-24
-2.82997e-22
3.22006e-20
-3.74302e-18
4.6725e-16
-6.94385e-14
1.63414e-11
2.09048e-08
2.09742e-06
7.6856e-05
0.00125448
0.00933659
0.0303461
9.45705e-40
-1.43962e-37
2.07541e-35
-2.86826e-33
3.79896e-31
-4.8253e-29
5.88916e-27
-6.93383e-25
7.93133e-23
-8.92005e-21
1.0065e-18
-1.18004e-16
1.53353e-14
-2.53165e-12
7.91377e-10
2.12322e-07
1.345e-05
0.000357096
0.00444505
0.0235554
2.26308e-41
-3.07529e-39
3.87163e-37
-4.53819e-35
4.87655e-33
-4.6614e-31
3.67728e-29
-1.75228e-27
-1.23521e-25
5.4073e-23
-1.1042e-20
1.89544e-18
-3.15536e-16
5.67073e-14
-1.28758e-11
5.52809e-09
9.40096e-07
5.05841e-05
0.00134618
0.0165558
-1.21263e-40
1.83199e-38
-2.59146e-36
3.4657e-34
-4.36509e-32
5.15548e-30
-5.68223e-28
5.8135e-26
-5.49069e-24
4.76321e-22
-3.7848e-20
2.76324e-18
-1.88122e-16
1.2258e-14
-7.5629e-13
2.67567e-11
1.43144e-08
2.74261e-06
0.00012121
0.00459323
-1.93905e-39
3.11222e-37
-4.70214e-35
6.75324e-33
-9.19201e-31
1.1816e-28
-1.42858e-26
1.61663e-24
-1.70248e-22
1.65696e-20
-1.47791e-18
1.19567e-16
-8.66268e-15
5.53175e-13
-3.05236e-11
1.4205e-09
-5.42214e-08
1.67761e-06
-3.33922e-05
0.000938218
-3.1407e-39
5.24588e-37
-8.24666e-35
1.23113e-32
-1.73907e-30
2.31403e-28
-2.88431e-26
3.34456e-24
-3.57707e-22
3.49117e-20
-3.06843e-18
2.38936e-16
-1.61607e-14
9.27255e-13
-4.39128e-11
1.66423e-09
-4.87793e-08
1.06348e-06
-1.62829e-05
0.000161919
-1.60844e-39
2.78243e-37
-4.52901e-35
6.9941e-33
-1.02048e-30
1.3993e-28
-1.79112e-26
2.12206e-24
-2.30238e-22
2.25744e-20
-1.96771e-18
1.49479e-16
-9.66476e-15
5.17386e-13
-2.2223e-11
7.39288e-10
-1.82955e-08
3.2037e-07
-3.66715e-06
2.22152e-05
-3.41582e-40
6.08747e-38
-1.02088e-35
1.62356e-33
-2.43754e-31
3.43462e-29
-4.50794e-27
5.45888e-25
-6.02624e-23
5.97496e-21
-5.22455e-19
3.94157e-17
-2.50027e-15
1.2944e-13
-5.28677e-12
1.63882e-10
-3.68193e-09
5.63988e-08
-5.31873e-07
2.349e-06
-3.20452e-41
5.81886e-39
-9.94485e-37
1.61168e-34
-2.46514e-32
3.53686e-30
-4.72252e-28
5.80953e-26
-6.50179e-24
6.51699e-22
-5.73971e-20
4.34156e-18
-2.74604e-16
1.40839e-14
-5.65572e-13
1.70771e-11
-3.68976e-10
5.32565e-09
-4.55091e-08
1.65158e-07
)
;

boundaryField
{
    x0
    {
        type            fixedValue;
        value           uniform 0;
    }
    x1
    {
        type            inletOutlet;
        inletValue      uniform 0.0357;
        value           nonuniform List<scalar> 10(0.0357 0.0357 0.0357 0.0357 0.0357 0.000938218 0.000161919 2.22152e-05 2.349e-06 1.65158e-07);
    }
    y0
    {
        type            zeroGradient;
    }
    y1
    {
        type            zeroGradient;
    }
    z0
    {
        type            empty;
    }
    z1
    {
        type            empty;
    }
}


// ************************************************************************* //
