/*--------------------------------*- C++ -*----------------------------------*\
  =========                 |
  \\      /  F ield         | OpenFOAM: The Open Source CFD Toolbox
   \\    /   O peration     | Website:  https://openfoam.org
    \\  /    A nd           | Version:  7
     \\/     M anipulation  |
\*---------------------------------------------------------------------------*/
FoamFile
{
    version     2.0;
    format      ascii;
    class       volScalarField;
    location    "420000";
    object      C_0;
}
// * * * * * * * * * * * * * * * * * * * * * * * * * * * * * * * * * * * * * //

dimensions      [0 0 0 0 0 0 0];

internalField   nonuniform List<scalar> 
200
(
-4.49359e-38
6.64665e-36
-9.31387e-34
1.25247e-31
-1.61683e-29
2.00717e-27
-2.40524e-25
2.80138e-23
-3.20895e-21
3.68925e-19
-4.41227e-17
5.87916e-15
-1.01936e-12
4.02258e-10
1.2856e-07
9.188e-06
0.000258334
0.00312609
0.0161182
0.0362813
-3.72443e-39
5.56149e-37
-7.87042e-35
1.06896e-32
-1.39353e-30
1.74586e-28
-2.10823e-26
2.46724e-24
-2.82471e-22
3.21452e-20
-3.73709e-18
4.66571e-16
-6.93464e-14
1.63216e-11
2.0886e-08
2.09589e-06
7.68123e-05
0.00125397
0.00933444
0.0303441
9.42995e-40
-1.43569e-37
2.07004e-35
-2.86123e-33
3.79018e-31
-4.81482e-29
5.87718e-27
-6.92069e-25
7.91738e-23
-8.90558e-21
1.00501e-18
-1.17844e-16
1.53165e-14
-2.52885e-12
7.90587e-10
2.12155e-07
1.34417e-05
0.000356934
0.0044438
0.0235531
2.25628e-41
-3.06641e-39
3.86087e-37
-4.526e-35
4.8638e-33
-4.64931e-31
3.66732e-29
-1.74597e-27
-1.23644e-25
5.40221e-23
-1.10294e-20
1.89323e-18
-3.1518e-16
5.66467e-14
-1.28629e-11
5.52292e-09
9.39415e-07
5.05568e-05
0.00134569
0.0165534
-1.20892e-40
1.82664e-38
-2.58428e-36
3.45663e-34
-4.35432e-32
5.14356e-30
-5.66999e-28
5.80194e-26
-5.48073e-24
4.75545e-22
-3.77938e-20
2.75989e-18
-1.87938e-16
1.22489e-14
-7.559e-13
2.67615e-11
1.42992e-08
2.74084e-06
0.000121146
0.00459143
-1.93301e-39
3.10297e-37
-4.68883e-35
6.73508e-33
-9.16861e-31
1.17876e-28
-1.42535e-26
1.61321e-24
-1.69913e-22
1.65394e-20
-1.47542e-18
1.19383e-16
-8.65062e-15
5.52487e-13
-3.04901e-11
1.41916e-09
-5.41781e-08
1.67653e-06
-3.33765e-05
0.000937835
-3.1305e-39
5.22958e-37
-8.22221e-35
1.22765e-32
-1.73441e-30
2.30815e-28
-2.8774e-26
3.33702e-24
-3.56952e-22
3.4843e-20
-3.06283e-18
2.38534e-16
-1.61359e-14
9.25966e-13
-4.38581e-11
1.6624e-09
-4.8733e-08
1.06263e-06
-1.62723e-05
0.000161836
-1.603e-39
2.7734e-37
-4.51495e-35
6.97339e-33
-1.0176e-30
1.39555e-28
-1.78658e-26
2.11698e-24
-2.2972e-22
2.25268e-20
-1.96385e-18
1.49207e-16
-9.64857e-15
5.16594e-13
-2.21923e-11
7.38372e-10
-1.82755e-08
3.20068e-07
-3.66423e-06
2.22009e-05
-3.40378e-40
6.06687e-38
-1.01757e-35
1.61852e-33
-2.43033e-31
3.42495e-29
-4.49588e-27
5.44506e-25
-6.01185e-23
5.96154e-21
-5.21357e-19
3.93385e-17
-2.49573e-15
1.29224e-13
-5.27872e-12
1.63656e-10
-3.6774e-09
5.63378e-08
-5.31378e-07
2.34719e-06
-3.19276e-41
5.79833e-39
-9.91118e-37
1.60645e-34
-2.45749e-32
3.52639e-30
-4.70922e-28
5.794e-26
-6.48534e-24
6.50144e-22
-5.72683e-20
4.33245e-18
-2.74067e-16
1.40585e-14
-5.64632e-13
1.70512e-11
-3.68472e-10
5.31917e-09
-4.54607e-08
1.65011e-07
)
;

boundaryField
{
    x0
    {
        type            fixedValue;
        value           uniform 0;
    }
    x1
    {
        type            inletOutlet;
        inletValue      uniform 0.0357;
        value           nonuniform List<scalar> 10(0.0357 0.0357 0.0357 0.0357 0.0357 0.000937835 0.000161836 2.22009e-05 2.34719e-06 1.65011e-07);
    }
    y0
    {
        type            zeroGradient;
    }
    y1
    {
        type            zeroGradient;
    }
    z0
    {
        type            empty;
    }
    z1
    {
        type            empty;
    }
}


// ************************************************************************* //
