/*--------------------------------*- C++ -*----------------------------------*\
  =========                 |
  \\      /  F ield         | OpenFOAM: The Open Source CFD Toolbox
   \\    /   O peration     | Website:  https://openfoam.org
    \\  /    A nd           | Version:  7
     \\/     M anipulation  |
\*---------------------------------------------------------------------------*/
FoamFile
{
    version     2.0;
    format      ascii;
    class       surfaceScalarField;
    location    "420000";
    object      phi;
}
// * * * * * * * * * * * * * * * * * * * * * * * * * * * * * * * * * * * * * //

dimensions      [0 3 -1 0 0 0 0];

internalField   nonuniform List<scalar> 
370
(
6.56083e-06
3.91687e-08
6.51782e-06
4.30101e-08
6.46675e-06
5.10718e-08
6.4026e-06
6.41504e-08
6.31906e-06
8.35411e-08
6.20789e-06
1.11172e-07
6.05808e-06
1.49806e-07
5.85473e-06
2.03347e-07
5.57745e-06
2.7728e-07
5.19809e-06
3.79367e-07
4.67735e-06
5.20736e-07
3.95956e-06
7.17787e-07
2.96376e-06
9.95805e-07
1.56701e-06
1.39674e-06
-4.31183e-07
1.9982e-06
-3.39358e-06
2.96239e-06
-7.98955e-06
4.59597e-06
-1.47266e-05
6.73703e-06
-2.08598e-05
6.13326e-06
-2.88835e-07
6.56467e-06
7.4496e-08
6.52588e-06
8.17997e-08
6.47983e-06
9.71268e-08
6.42199e-06
1.21989e-07
6.34669e-06
1.58842e-07
6.24652e-06
2.1134e-07
6.11162e-06
2.84707e-07
5.92867e-06
3.863e-07
5.67954e-06
5.26407e-07
5.33946e-06
7.1945e-07
4.8744e-06
9.85792e-07
4.23758e-06
1.35461e-06
3.3647e-06
1.86869e-06
2.16852e-06
2.59292e-06
5.36911e-07
3.6298e-06
-1.64665e-06
5.14595e-06
-4.43276e-06
7.38208e-06
-7.95494e-06
1.02592e-05
-1.28715e-05
1.10498e-05
3.49081e-06
6.57198e-06
1.0252e-07
6.54121e-06
1.12566e-07
6.50469e-06
1.33647e-07
6.45884e-06
1.67836e-07
6.39919e-06
2.185e-07
6.31989e-06
2.90637e-07
6.21321e-06
3.91384e-07
6.06877e-06
5.30737e-07
5.87258e-06
7.22599e-07
5.6058e-06
9.86236e-07
5.24322e-06
1.34837e-06
4.75166e-06
1.84616e-06
4.08893e-06
2.53142e-06
3.2054e-06
3.47645e-06
2.05386e-06
4.78135e-06
6.20268e-07
6.57954e-06
-1.02339e-06
9.02574e-06
-2.90579e-06
1.21416e-05
-6.38877e-06
1.45328e-05
8.48275e-06
6.58202e-06
1.20497e-07
6.56229e-06
1.32298e-07
6.53888e-06
1.57059e-07
6.50951e-06
1.97207e-07
6.47132e-06
2.56683e-07
6.42063e-06
3.41327e-07
6.35257e-06
4.59452e-07
6.26064e-06
6.22668e-07
6.13622e-06
8.47014e-07
5.96793e-06
1.15452e-06
5.741e-06
1.5753e-06
5.43692e-06
2.15025e-06
5.03397e-06
2.93436e-06
4.5103e-06
4.00013e-06
3.85212e-06
5.43952e-06
3.07143e-06
7.36023e-06
2.23007e-06
9.8671e-06
1.36905e-06
1.30026e-05
-4.2781e-07
1.63296e-05
1.44957e-05
6.59382e-06
1.26672e-07
6.58705e-06
1.39071e-07
6.57903e-06
1.65083e-07
6.56898e-06
2.07251e-07
6.55597e-06
2.697e-07
6.53876e-06
3.58535e-07
6.51578e-06
4.8243e-07
6.48498e-06
6.53466e-07
6.44373e-06
8.88268e-07
6.38871e-06
1.20954e-06
6.31595e-06
1.64806e-06
6.22102e-06
2.24518e-06
6.09974e-06
3.05564e-06
5.94969e-06
4.15018e-06
5.77283e-06
5.61638e-06
5.57863e-06
7.55444e-06
5.38393e-06
1.00618e-05
5.19076e-06
1.31958e-05
4.62553e-06
1.68948e-05
1.93745e-05
6.60622e-06
1.20449e-07
6.61306e-06
1.32232e-07
6.6212e-06
1.5695e-07
6.63143e-06
1.97013e-07
6.6448e-06
2.56331e-07
6.66266e-06
3.40681e-07
6.68682e-06
4.58269e-07
6.71978e-06
6.205e-07
6.765e-06
8.43052e-07
6.82723e-06
1.1473e-06
6.91307e-06
1.56222e-06
7.03149e-06
2.12677e-06
7.19428e-06
2.89285e-06
7.41589e-06
3.92857e-06
7.7109e-06
5.32137e-06
8.08596e-06
7.17938e-06
8.51951e-06
9.62825e-06
8.91897e-06
1.27964e-05
9.00975e-06
1.68041e-05
2.12771e-05
6.61801e-06
1.02443e-07
6.63778e-06
1.1246e-07
6.66126e-06
1.3347e-07
6.69075e-06
1.67521e-07
6.72915e-06
2.17928e-07
6.78024e-06
2.89591e-07
6.84905e-06
3.89463e-07
6.94234e-06
5.27213e-07
7.06925e-06
7.16136e-07
7.24215e-06
9.74401e-07
7.47762e-06
1.32675e-06
7.79756e-06
1.80683e-06
8.23001e-06
2.4604e-06
8.80869e-06
3.34989e-06
9.5689e-06
4.56115e-06
1.05348e-05
6.21348e-06
1.16886e-05
8.47444e-06
1.29083e-05
1.15766e-05
1.3885e-05
1.58274e-05
2.13988e-05
6.62802e-06
7.44189e-08
6.65879e-06
8.16932e-08
6.69531e-06
9.69501e-08
6.74116e-06
1.21674e-07
6.80082e-06
1.5827e-07
6.88012e-06
2.10291e-07
6.9868e-06
2.8278e-07
7.13126e-06
3.82754e-07
7.32752e-06
5.19878e-07
7.5945e-06
7.07413e-07
7.9577e-06
9.63555e-07
8.45113e-06
1.31341e-06
9.11951e-06
1.79202e-06
1.00199e-05
2.44946e-06
1.12212e-05
3.35987e-06
1.27957e-05
4.63897e-06
1.47913e-05
6.47889e-06
1.71516e-05
9.2163e-06
1.95279e-05
1.34511e-05
2.01096e-05
6.6353e-06
3.91211e-08
6.67405e-06
4.29442e-08
6.72003e-06
5.09626e-08
6.77775e-06
6.3956e-08
6.85284e-06
8.31871e-08
6.9526e-06
1.10522e-07
7.08677e-06
1.48611e-07
7.26838e-06
2.01144e-07
7.51505e-06
2.7321e-07
7.85065e-06
3.71818e-07
8.30755e-06
5.06648e-07
8.92974e-06
6.91218e-07
9.77694e-06
9.4482e-07
1.09304e-05
1.29604e-06
1.25003e-05
1.78989e-06
1.46357e-05
2.50364e-06
1.75288e-05
3.58572e-06
2.13848e-05
5.36032e-06
2.61964e-05
8.6395e-06
1.57453e-05
6.63912e-06
6.68207e-06
6.73303e-06
6.79698e-06
6.88017e-06
6.99069e-06
7.1393e-06
7.34045e-06
7.61366e-06
7.98548e-06
8.49212e-06
9.18334e-06
1.01282e-05
1.14242e-05
1.32141e-05
1.57177e-05
1.93035e-05
2.46638e-05
3.33033e-05
)
;

boundaryField
{
    x0
    {
        type            calculated;
        value           nonuniform List<scalar> 10(-6.6e-06 -6.6e-06 -6.6e-06 -6.6e-06 -6.6e-06 -6.6e-06 -6.6e-06 -6.6e-06 -6.6e-06 -6.6e-06);
    }
    x1
    {
        type            calculated;
        value           nonuniform List<scalar> 10(-2.0571e-05 -1.66511e-05 -1.13807e-05 -6.44072e-06 -2.53334e-07 7.1072e-06 1.37633e-05 2.0817e-05 3.05607e-05 4.90485e-05);
    }
    y0
    {
        type            calculated;
        value           uniform 0;
    }
    y1
    {
        type            calculated;
        value           uniform 0;
    }
    z0
    {
        type            empty;
        value           nonuniform 0();
    }
    z1
    {
        type            empty;
        value           nonuniform 0();
    }
}


// ************************************************************************* //
