/*--------------------------------*- C++ -*----------------------------------*\
  =========                 |
  \\      /  F ield         | OpenFOAM: The Open Source CFD Toolbox
   \\    /   O peration     | Website:  https://openfoam.org
    \\  /    A nd           | Version:  7
     \\/     M anipulation  |
\*---------------------------------------------------------------------------*/
FoamFile
{
    version     2.0;
    format      ascii;
    class       volVectorField;
    location    "420000";
    object      Utheta;
}
// * * * * * * * * * * * * * * * * * * * * * * * * * * * * * * * * * * * * * //

dimensions      [0 1 -1 0 0 0 0];

internalField   nonuniform List<vector> 
200
(
(6.58042e-05 3.91687e-07 0)
(6.53933e-05 4.30101e-07 0)
(6.49229e-05 5.10718e-07 0)
(6.43467e-05 6.41504e-07 0)
(6.36083e-05 8.35411e-07 0)
(6.26347e-05 1.11172e-06 0)
(6.13298e-05 1.49806e-06 0)
(5.95641e-05 2.03347e-06 0)
(5.71609e-05 2.7728e-06 0)
(5.38777e-05 3.79367e-06 0)
(4.93772e-05 5.20736e-06 0)
(4.31846e-05 7.17787e-06 0)
(3.46166e-05 9.95805e-06 0)
(2.26539e-05 1.39674e-05 0)
(5.67915e-06 1.9982e-05 0)
(-1.91238e-05 2.96239e-05 0)
(-5.69156e-05 4.59597e-05 0)
(-0.000113581 6.73703e-05 0)
(-0.000177932 6.13326e-05 0)
(-0.000207154 -2.88835e-06 0)
(6.58234e-05 5.68324e-07 0)
(6.54528e-05 6.24049e-07 0)
(6.50286e-05 7.40993e-07 0)
(6.45091e-05 9.30696e-07 0)
(6.38434e-05 1.21192e-06 0)
(6.2966e-05 1.61256e-06 0)
(6.17907e-05 2.17257e-06 0)
(6.02014e-05 2.94823e-06 0)
(5.8041e-05 4.01844e-06 0)
(5.5095e-05 5.49409e-06 0)
(5.10693e-05 7.53264e-06 0)
(4.55599e-05 1.0362e-05 0)
(3.80114e-05 1.43225e-05 0)
(2.76661e-05 1.99483e-05 0)
(1.35271e-05 2.814e-05 0)
(-5.54867e-06 4.05417e-05 0)
(-3.0397e-05 5.98903e-05 0)
(-6.19385e-05 8.49812e-05 0)
(-0.000104132 8.59152e-05 0)
(-0.000147613 1.60099e-05 0)
(6.58599e-05 8.85078e-07 0)
(6.55659e-05 9.71829e-07 0)
(6.52295e-05 1.15387e-06 0)
(6.48177e-05 1.44912e-06 0)
(6.42901e-05 1.88671e-06 0)
(6.35954e-05 2.50989e-06 0)
(6.26655e-05 3.38045e-06 0)
(6.14099e-05 4.58518e-06 0)
(5.97068e-05 6.24503e-06 0)
(5.73919e-05 8.52843e-06 0)
(5.42451e-05 1.16708e-05 0)
(4.99744e-05 1.60038e-05 0)
(4.4203e-05 2.20005e-05 0)
(3.64717e-05 3.03469e-05 0)
(2.62963e-05 4.20558e-05 0)
(1.33706e-05 5.86274e-05 0)
(-2.01563e-06 8.20391e-05 0)
(-1.96459e-05 0.000112004 0)
(-4.64728e-05 0.000127913 0)
(-8.88475e-05 5.98678e-05 0)
(6.59101e-05 1.11508e-06 0)
(6.57216e-05 1.22432e-06 0)
(6.55058e-05 1.45353e-06 0)
(6.52419e-05 1.82521e-06 0)
(6.49042e-05 2.37591e-06 0)
(6.44598e-05 3.15982e-06 0)
(6.3866e-05 4.25418e-06 0)
(6.3066e-05 5.76702e-06 0)
(6.19843e-05 7.84806e-06 0)
(6.05208e-05 1.07038e-05 0)
(5.85447e-05 1.46184e-05 0)
(5.58896e-05 1.99821e-05 0)
(5.23544e-05 2.73289e-05 0)
(4.77213e-05 3.73829e-05 0)
(4.18121e-05 5.11044e-05 0)
(3.46178e-05 6.96989e-05 0)
(2.65075e-05 9.44642e-05 0)
(1.79956e-05 0.000125721 0)
(4.70619e-06 0.000154312 0)
(-3.43426e-05 0.000114892 0)
(6.59691e-05 1.23585e-06 0)
(6.59044e-05 1.35685e-06 0)
(6.58304e-05 1.61071e-06 0)
(6.57401e-05 2.02229e-06 0)
(6.56248e-05 2.63192e-06 0)
(6.54736e-05 3.49931e-06 0)
(6.52727e-05 4.70941e-06 0)
(6.50038e-05 6.38067e-06 0)
(6.46436e-05 8.67641e-06 0)
(6.41622e-05 1.18203e-05 0)
(6.35233e-05 1.61168e-05 0)
(6.26849e-05 2.19772e-05 0)
(6.16038e-05 2.995e-05 0)
(6.02472e-05 4.07516e-05 0)
(5.86126e-05 5.52795e-05 0)
(5.67573e-05 7.45734e-05 0)
(5.48128e-05 9.96445e-05 0)
(5.28735e-05 0.000130992 0)
(4.90815e-05 0.000166122 0)
(2.1861e-05 0.000169351 0)
(6.60311e-05 1.23561e-06 0)
(6.60964e-05 1.35652e-06 0)
(6.61713e-05 1.61016e-06 0)
(6.62631e-05 2.02132e-06 0)
(6.63812e-05 2.63015e-06 0)
(6.65373e-05 3.49608e-06 0)
(6.67474e-05 4.7035e-06 0)
(6.7033e-05 6.36983e-06 0)
(6.74239e-05 8.6566e-06 0)
(6.79612e-05 1.17842e-05 0)
(6.87015e-05 1.60514e-05 0)
(6.97228e-05 2.18598e-05 0)
(7.11288e-05 2.97424e-05 0)
(7.30509e-05 4.03938e-05 0)
(7.56339e-05 5.46887e-05 0)
(7.89843e-05 7.36691e-05 0)
(8.30274e-05 9.84502e-05 0)
(8.71924e-05 0.000129961 0)
(8.96436e-05 0.000168495 0)
(8.05847e-05 0.000203258 0)
(6.609e-05 1.11446e-06 0)
(6.62789e-05 1.22346e-06 0)
(6.64952e-05 1.4521e-06 0)
(6.676e-05 1.82267e-06 0)
(6.70995e-05 2.37129e-06 0)
(6.7547e-05 3.15136e-06 0)
(6.81465e-05 4.23866e-06 0)
(6.89569e-05 5.73857e-06 0)
(7.00579e-05 7.79594e-06 0)
(7.1557e-05 1.06085e-05 0)
(7.35989e-05 1.44449e-05 0)
(7.63759e-05 1.9668e-05 0)
(8.01378e-05 2.67662e-05 0)
(8.51935e-05 3.63923e-05 0)
(9.1888e-05 4.94126e-05 0)
(0.000100519 6.69643e-05 0)
(0.000111117 9.05135e-05 0)
(0.000122985 0.000121865 0)
(0.000133967 0.000163157 0)
(0.000138242 0.000213379 0)
(6.61401e-05 8.84308e-07 0)
(6.64341e-05 9.70764e-07 0)
(6.67705e-05 1.1521e-06 0)
(6.71823e-05 1.44598e-06 0)
(6.77099e-05 1.88099e-06 0)
(6.84047e-05 2.49941e-06 0)
(6.93346e-05 3.36121e-06 0)
(7.05903e-05 4.54983e-06 0)
(7.22939e-05 6.18007e-06 0)
(7.46101e-05 8.40907e-06 0)
(7.7761e-05 1.14515e-05 0)
(8.20441e-05 1.56012e-05 0)
(8.78532e-05 2.12621e-05 0)
(9.56972e-05 2.89967e-05 0)
(0.000106206 3.96051e-05 0)
(0.000120085 5.42622e-05 0)
(0.000137935 7.47667e-05 0)
(0.000159715 0.000103965 0)
(0.000183397 0.000146392 0)
(0.000201725 0.000207542 0)
(6.61765e-05 5.677e-07 0)
(6.65467e-05 6.23187e-07 0)
(6.69704e-05 7.39564e-07 0)
(6.74889e-05 9.28152e-07 0)
(6.81529e-05 1.20729e-06 0)
(6.90272e-05 1.60407e-06 0)
(7.01969e-05 2.15696e-06 0)
(7.17758e-05 2.91949e-06 0)
(7.39172e-05 3.96544e-06 0)
(7.68285e-05 5.39615e-06 0)
(8.0791e-05 7.35101e-06 0)
(8.61865e-05 1.00231e-05 0)
(9.35334e-05 1.36842e-05 0)
(0.000103536 1.87275e-05 0)
(0.000117153 2.57488e-05 0)
(0.00013568 3.57131e-05 0)
(0.000160822 5.03231e-05 0)
(0.000194568 7.28831e-05 0)
(0.000237906 0.000110453 0)
(0.000283786 0.000179274 0)
(6.61956e-05 3.91211e-07 0)
(6.66059e-05 4.29442e-07 0)
(6.70755e-05 5.09626e-07 0)
(6.76501e-05 6.3956e-07 0)
(6.83858e-05 8.31871e-07 0)
(6.93543e-05 1.10522e-06 0)
(7.065e-05 1.48611e-06 0)
(7.23988e-05 2.01144e-06 0)
(7.47705e-05 2.7321e-06 0)
(7.79957e-05 3.71818e-06 0)
(8.2388e-05 5.06648e-06 0)
(8.83773e-05 6.91218e-06 0)
(9.65575e-05 9.4482e-06 0)
(0.000107762 1.29604e-05 0)
(0.000123191 1.78989e-05 0)
(0.000144659 2.50364e-05 0)
(0.000175106 3.58572e-05 0)
(0.000219836 5.36032e-05 0)
(0.000289835 8.6395e-05 0)
(0.000411759 0.000157453 0)
)
;

boundaryField
{
    x0
    {
        type            fixedValue;
        value           uniform (6.6e-05 0 0);
    }
    x1
    {
        type            zeroGradient;
    }
    y0
    {
        type            zeroGradient;
    }
    y1
    {
        type            zeroGradient;
    }
    z0
    {
        type            empty;
    }
    z1
    {
        type            empty;
    }
}


// ************************************************************************* //
