/*--------------------------------*- C++ -*----------------------------------*\
  =========                 |
  \\      /  F ield         | OpenFOAM: The Open Source CFD Toolbox
   \\    /   O peration     | Website:  https://openfoam.org
    \\  /    A nd           | Version:  7
     \\/     M anipulation  |
\*---------------------------------------------------------------------------*/
FoamFile
{
    version     2.0;
    format      ascii;
    class       volVectorField;
    location    "1";
    object      Utheta;
}
// * * * * * * * * * * * * * * * * * * * * * * * * * * * * * * * * * * * * * //

dimensions      [0 1 -1 0 0 0 0];

internalField   nonuniform List<vector> 
200
(
(6.58084e-05 3.83282e-07 0)
(6.54063e-05 4.20802e-07 0)
(6.49462e-05 4.99519e-07 0)
(6.43828e-05 6.27144e-07 0)
(6.36612e-05 8.16183e-07 0)
(6.27105e-05 1.08518e-06 0)
(6.14376e-05 1.46055e-06 0)
(5.97177e-05 1.97927e-06 0)
(5.73818e-05 2.69261e-06 0)
(5.41996e-05 3.67168e-06 0)
(4.98561e-05 5.01537e-06 0)
(4.39171e-05 6.86265e-06 0)
(3.57795e-05 9.41261e-06 0)
(2.45932e-05 1.296e-05 0)
(9.13059e-06 1.79652e-05 0)
(-1.24562e-05 2.52084e-05 0)
(-4.31441e-05 3.61672e-05 0)
(-8.825e-05 5.40446e-05 0)
(-0.000158705 8.68655e-05 0)
(-0.00028101 0.000157743 0)
(6.58271e-05 5.56162e-07 0)
(6.54644e-05 6.10606e-07 0)
(6.50493e-05 7.24825e-07 0)
(6.45412e-05 9.10008e-07 0)
(6.38902e-05 1.1843e-06 0)
(6.30327e-05 1.57458e-06 0)
(6.18847e-05 2.11916e-06 0)
(6.03337e-05 2.87158e-06 0)
(5.8228e-05 3.90606e-06 0)
(5.5361e-05 5.32521e-06 0)
(5.14516e-05 7.27125e-06 0)
(4.61157e-05 9.94264e-06 0)
(3.88281e-05 1.36202e-05 0)
(2.88695e-05 1.8711e-05 0)
(1.52548e-05 2.58288e-05 0)
(-3.3552e-06 3.59549e-05 0)
(-2.87259e-05 5.07916e-05 0)
(-6.29009e-05 7.35953e-05 0)
(-0.000106856 0.00011127 0)
(-0.000153414 0.000179897 0)
(6.58628e-05 8.66239e-07 0)
(6.5575e-05 9.51035e-07 0)
(6.52456e-05 1.12893e-06 0)
(6.48423e-05 1.41734e-06 0)
(6.43257e-05 1.84451e-06 0)
(6.36453e-05 2.45228e-06 0)
(6.27346e-05 3.30021e-06 0)
(6.15046e-05 4.47148e-06 0)
(5.98354e-05 6.08113e-06 0)
(5.75648e-05 8.28769e-06 0)
(5.44735e-05 1.13095e-05 0)
(5.0266e-05 1.54478e-05 0)
(4.45478e-05 2.11209e-05 0)
(3.68017e-05 2.89152e-05 0)
(2.63744e-05 3.96666e-05 0)
(1.25066e-05 5.45949e-05 0)
(-5.50366e-06 7.55325e-05 0)
(-2.77718e-05 0.000105297 0)
(-5.24034e-05 0.000148154 0)
(-7.23753e-05 0.000209542 0)
(6.59119e-05 1.09152e-06 0)
(6.57271e-05 1.19837e-06 0)
(6.55156e-05 1.42251e-06 0)
(6.52567e-05 1.78591e-06 0)
(6.49251e-05 2.32411e-06 0)
(6.44884e-05 3.08981e-06 0)
(6.39039e-05 4.15793e-06 0)
(6.31147e-05 5.63299e-06 0)
(6.20442e-05 7.65929e-06 0)
(6.05893e-05 1.0435e-05 0)
(5.86117e-05 1.42312e-05 0)
(5.59271e-05 1.94181e-05 0)
(5.22955e-05 2.65003e-05 0)
(4.74152e-05 3.61622e-05 0)
(4.09345e-05 4.93275e-05 0)
(3.25107e-05 6.72256e-05 0)
(2.19765e-05 9.14463e-05 0)
(9.72076e-06 0.000123907 0)
(-2.61098e-06 0.000166507 0)
(-1.13089e-05 0.000219859 0)
(6.59696e-05 1.20996e-06 0)
(6.5906e-05 1.32839e-06 0)
(6.58331e-05 1.57686e-06 0)
(6.57439e-05 1.97966e-06 0)
(6.56296e-05 2.57623e-06 0)
(6.54792e-05 3.42491e-06 0)
(6.52778e-05 4.6087e-06 0)
(6.5006e-05 6.24326e-06 0)
(6.46374e-05 8.48809e-06 0)
(6.41367e-05 1.15617e-05 0)
(6.34567e-05 1.57621e-05 0)
(6.25351e-05 2.14934e-05 0)
(6.12919e-05 2.92998e-05 0)
(5.9629e-05 3.99059e-05 0)
(5.74378e-05 5.42557e-05 0)
(5.46254e-05 7.35336e-05 0)
(5.11782e-05 9.91196e-05 0)
(4.72893e-05 0.000132379 0)
(4.35476e-05 0.00017411 0)
(4.10597e-05 0.000223442 0)
(6.60304e-05 1.20996e-06 0)
(6.6094e-05 1.32839e-06 0)
(6.61669e-05 1.57686e-06 0)
(6.62561e-05 1.97966e-06 0)
(6.63704e-05 2.57623e-06 0)
(6.65208e-05 3.42491e-06 0)
(6.67222e-05 4.6087e-06 0)
(6.6994e-05 6.24326e-06 0)
(6.73626e-05 8.48809e-06 0)
(6.78633e-05 1.15617e-05 0)
(6.85433e-05 1.57621e-05 0)
(6.94649e-05 2.14934e-05 0)
(7.07081e-05 2.92998e-05 0)
(7.2371e-05 3.99059e-05 0)
(7.45622e-05 5.42557e-05 0)
(7.73746e-05 7.35336e-05 0)
(8.08218e-05 9.91196e-05 0)
(8.47107e-05 0.000132379 0)
(8.84524e-05 0.00017411 0)
(9.09403e-05 0.000223442 0)
(6.60881e-05 1.09152e-06 0)
(6.62729e-05 1.19837e-06 0)
(6.64844e-05 1.42251e-06 0)
(6.67433e-05 1.78591e-06 0)
(6.70749e-05 2.32411e-06 0)
(6.75116e-05 3.08981e-06 0)
(6.80961e-05 4.15793e-06 0)
(6.88853e-05 5.63299e-06 0)
(6.99558e-05 7.65929e-06 0)
(7.14107e-05 1.0435e-05 0)
(7.33883e-05 1.42312e-05 0)
(7.60729e-05 1.94181e-05 0)
(7.97045e-05 2.65003e-05 0)
(8.45848e-05 3.61622e-05 0)
(9.10655e-05 4.93275e-05 0)
(9.94893e-05 6.72256e-05 0)
(0.000110023 9.14463e-05 0)
(0.000122279 0.000123907 0)
(0.000134611 0.000166507 0)
(0.000143309 0.000219859 0)
(6.61372e-05 8.66239e-07 0)
(6.6425e-05 9.51035e-07 0)
(6.67544e-05 1.12893e-06 0)
(6.71577e-05 1.41734e-06 0)
(6.76743e-05 1.84451e-06 0)
(6.83547e-05 2.45228e-06 0)
(6.92654e-05 3.30021e-06 0)
(7.04954e-05 4.47148e-06 0)
(7.21646e-05 6.08113e-06 0)
(7.44352e-05 8.28769e-06 0)
(7.75265e-05 1.13095e-05 0)
(8.1734e-05 1.54478e-05 0)
(8.74522e-05 2.11209e-05 0)
(9.51983e-05 2.89152e-05 0)
(0.000105626 3.96666e-05 0)
(0.000119493 5.45949e-05 0)
(0.000137504 7.55325e-05 0)
(0.000159772 0.000105297 0)
(0.000184403 0.000148154 0)
(0.000204375 0.000209542 0)
(6.61729e-05 5.56162e-07 0)
(6.65356e-05 6.10606e-07 0)
(6.69507e-05 7.24825e-07 0)
(6.74588e-05 9.10008e-07 0)
(6.81098e-05 1.1843e-06 0)
(6.89673e-05 1.57458e-06 0)
(7.01153e-05 2.11916e-06 0)
(7.16663e-05 2.87158e-06 0)
(7.3772e-05 3.90606e-06 0)
(7.6639e-05 5.32521e-06 0)
(8.05484e-05 7.27125e-06 0)
(8.58843e-05 9.94264e-06 0)
(9.31719e-05 1.36202e-05 0)
(0.000103131 1.8711e-05 0)
(0.000116745 2.58288e-05 0)
(0.000135355 3.59549e-05 0)
(0.000160726 5.07916e-05 0)
(0.000194901 7.35953e-05 0)
(0.000238856 0.00011127 0)
(0.000285414 0.000179897 0)
(6.61916e-05 3.83282e-07 0)
(6.65937e-05 4.20802e-07 0)
(6.70538e-05 4.99519e-07 0)
(6.76172e-05 6.27144e-07 0)
(6.83388e-05 8.16183e-07 0)
(6.92895e-05 1.08518e-06 0)
(7.05624e-05 1.46055e-06 0)
(7.22823e-05 1.97927e-06 0)
(7.46182e-05 2.69261e-06 0)
(7.78004e-05 3.67168e-06 0)
(8.21439e-05 5.01537e-06 0)
(8.80829e-05 6.86265e-06 0)
(9.62205e-05 9.41261e-06 0)
(0.000107407 1.296e-05 0)
(0.000122869 1.79652e-05 0)
(0.000144456 2.52084e-05 0)
(0.000175144 3.61672e-05 0)
(0.00022025 5.40446e-05 0)
(0.000290705 8.68655e-05 0)
(0.00041301 0.000157743 0)
)
;

boundaryField
{
    x0
    {
        type            fixedValue;
        value           uniform (6.6e-05 0 0);
    }
    x1
    {
        type            zeroGradient;
    }
    y0
    {
        type            zeroGradient;
    }
    y1
    {
        type            zeroGradient;
    }
    z0
    {
        type            empty;
    }
    z1
    {
        type            empty;
    }
}


// ************************************************************************* //
