/*--------------------------------*- C++ -*----------------------------------*\
  =========                 |
  \\      /  F ield         | OpenFOAM: The Open Source CFD Toolbox
   \\    /   O peration     | Website:  https://openfoam.org
    \\  /    A nd           | Version:  7
     \\/     M anipulation  |
\*---------------------------------------------------------------------------*/
FoamFile
{
    version     2.0;
    format      ascii;
    class       volScalarField;
    location    "540000";
    object      C;
}
// * * * * * * * * * * * * * * * * * * * * * * * * * * * * * * * * * * * * * //

dimensions      [0 0 0 0 0 0 0];

internalField   nonuniform List<scalar> 
200
(
-6.53511e-36
7.55858e-34
-8.2521e-32
8.64712e-30
-8.70031e-28
8.42057e-26
-7.86998e-24
7.15297e-22
-6.39946e-20
5.75412e-18
-5.39554e-16
5.66568e-14
-7.84908e-12
2.67307e-09
6.01825e-07
3.19148e-05
0.00066162
0.00580477
0.0219108
0.0384748
-7.01904e-37
8.20817e-35
-9.06609e-33
9.61443e-31
-9.79113e-29
9.58842e-27
-9.05767e-25
8.30087e-23
-7.45287e-21
6.66514e-19
-6.10912e-17
6.04678e-15
-7.20398e-13
1.40254e-10
1.02658e-07
7.59907e-06
0.000207553
0.0025122
0.0136786
0.0336588
1.44847e-37
-1.73102e-35
1.95237e-33
-2.11136e-31
2.18883e-29
-2.17687e-27
2.08138e-25
-1.9213e-23
1.725e-21
-1.52547e-19
1.35729e-17
-1.26073e-15
1.30886e-13
-1.75402e-11
4.62964e-09
8.55787e-07
3.99084e-05
0.000788623
0.00717425
0.0274662
4.82011e-39
-5.37383e-37
5.60699e-35
-5.5542e-33
5.20006e-31
-4.57146e-29
3.73252e-27
-2.77011e-25
1.77339e-23
-8.12296e-22
-8.24654e-21
9.41948e-18
-1.90799e-15
3.41893e-13
-7.24728e-11
2.8641e-08
3.36161e-06
0.000130958
0.00253639
0.0209203
-2.71862e-38
3.18097e-36
-3.46182e-34
3.54841e-32
-3.40806e-30
3.04784e-28
-2.51808e-26
1.90251e-24
-1.29664e-22
7.81821e-21
-4.04839e-19
1.71143e-17
-5.32047e-16
8.35381e-15
3.75837e-13
-1.42043e-10
8.60791e-08
8.58755e-06
0.000299038
0.00836887
-4.6673e-37
5.84635e-35
-6.86714e-33
7.6643e-31
-8.10278e-29
8.0854e-27
-7.58316e-25
6.65169e-23
-5.42498e-21
4.08505e-19
-2.81604e-17
1.75877e-15
-9.82474e-14
4.8304e-12
-2.04865e-10
7.31445e-09
-2.14083e-07
5.16577e-06
-7.63174e-05
0.00195002
-9.53633e-37
1.244e-34
-1.52199e-32
1.76802e-30
-1.94291e-28
2.01066e-26
-1.9485e-24
1.7559e-22
-1.45871e-20
1.10511e-18
-7.53334e-17
4.54508e-15
-2.37877e-13
1.05449e-11
-3.85111e-10
1.12337e-08
-2.53061e-07
4.24276e-06
-5.02222e-05
0.000400421
-6.22589e-37
8.41132e-35
-1.06569e-32
1.2808e-30
-1.4541e-28
1.55109e-26
-1.54404e-24
1.42211e-22
-1.1989e-20
9.12819e-19
-6.17395e-17
3.63585e-15
-1.82032e-13
7.53579e-12
-2.49936e-10
6.41002e-09
-1.22109e-07
1.6441e-06
-1.44739e-05
6.7518e-05
-1.68832e-37
2.34937e-35
-3.06639e-33
3.79479e-31
-4.43253e-29
4.85789e-27
-4.9577e-25
4.66625e-23
-4.00182e-21
3.08056e-19
-2.08981e-17
1.22211e-15
-6.00302e-14
2.40379e-12
-7.58412e-11
1.81339e-09
-3.13692e-08
3.69045e-07
-2.66095e-06
8.82915e-06
-2.04257e-38
2.89498e-36
-3.84934e-34
4.85238e-32
-5.77159e-30
6.43749e-28
-6.67961e-26
6.38256e-24
-5.54518e-22
4.31181e-20
-2.94361e-18
1.72426e-16
-8.43652e-15
3.34312e-13
-1.0358e-11
2.40879e-10
-3.99868e-09
4.41614e-08
-2.86208e-07
7.61324e-07
)
;

boundaryField
{
    x0
    {
        type            fixedValue;
        value           uniform 0;
    }
    x1
    {
        type            inletOutlet;
        inletValue      uniform 0.0357;
        value           nonuniform List<scalar> 10(0.0357 0.0357 0.0357 0.0357 0.0357 0.00195002 0.000400421 6.7518e-05 8.82915e-06 7.61324e-07);
    }
    y0
    {
        type            zeroGradient;
    }
    y1
    {
        type            zeroGradient;
    }
    z0
    {
        type            empty;
    }
    z1
    {
        type            empty;
    }
}


// ************************************************************************* //
