/*--------------------------------*- C++ -*----------------------------------*\
  =========                 |
  \\      /  F ield         | OpenFOAM: The Open Source CFD Toolbox
   \\    /   O peration     | Website:  https://openfoam.org
    \\  /    A nd           | Version:  7
     \\/     M anipulation  |
\*---------------------------------------------------------------------------*/
FoamFile
{
    version     2.0;
    format      ascii;
    class       volScalarField;
    location    "540000";
    object      C_0;
}
// * * * * * * * * * * * * * * * * * * * * * * * * * * * * * * * * * * * * * //

dimensions      [0 0 0 0 0 0 0];

internalField   nonuniform List<scalar> 
200
(
-6.52076e-36
7.5428e-34
-8.23579e-32
8.63097e-30
-8.68502e-28
8.40669e-26
-7.85787e-24
7.14275e-22
-6.39102e-20
5.74715e-18
-5.38958e-16
5.66002e-14
-7.842e-12
2.67081e-09
6.01413e-07
3.18972e-05
0.000661348
0.00580324
0.0219081
0.0384741
-7.00282e-37
8.19009e-35
-9.04711e-33
9.59535e-31
-9.77277e-29
9.57147e-27
-9.04265e-25
8.28799e-23
-7.44211e-21
6.65622e-19
-6.10159e-17
6.03993e-15
-7.19651e-13
1.4012e-10
1.02586e-07
7.59475e-06
0.000207463
0.00251145
0.0136764
0.0336575
1.44526e-37
-1.72738e-35
1.94847e-33
-2.10737e-31
2.18493e-29
-2.17323e-27
2.07812e-25
-1.91849e-23
1.72267e-21
-1.52357e-19
1.35574e-17
-1.25942e-15
1.30762e-13
-1.75253e-11
4.62601e-09
8.55259e-07
3.98893e-05
0.00078835
0.0071728
0.0274645
4.80859e-39
-5.36144e-37
5.59454e-35
-5.54229e-33
5.18928e-31
-4.56224e-29
3.72514e-27
-2.76463e-25
1.7697e-23
-8.10185e-22
-8.32661e-21
9.41666e-18
-1.90672e-15
3.41638e-13
-7.24187e-11
2.86202e-08
3.35972e-06
0.000130903
0.00253569
0.0209183
-2.71209e-38
3.1737e-36
-3.45431e-34
3.54113e-32
-3.40148e-30
3.04233e-28
-2.51387e-26
1.89959e-24
-1.29486e-22
7.80889e-21
-4.04456e-19
1.71048e-17
-5.32225e-16
8.39212e-15
3.73004e-13
-1.41819e-10
8.60137e-08
8.58319e-06
0.000298919
0.00836695
-4.65601e-37
5.83284e-35
-6.85204e-33
7.6483e-31
-8.08677e-29
8.07033e-27
-7.56988e-25
6.6408e-23
-5.41672e-21
4.07929e-19
-2.81239e-17
1.7567e-15
-9.8143e-14
4.82583e-12
-2.04695e-10
7.30925e-09
-2.13956e-07
5.16322e-06
-7.62897e-05
0.00194941
-9.5123e-37
1.241e-34
-1.51849e-32
1.76415e-30
-1.93887e-28
2.00671e-26
-1.94488e-24
1.75284e-22
-1.45633e-20
1.10343e-18
-7.52274e-17
4.5392e-15
-2.37596e-13
1.05336e-11
-3.84746e-10
1.12243e-08
-2.5288e-07
4.24021e-06
-5.01976e-05
0.000400262
-6.20954e-37
8.39014e-35
-1.06313e-32
1.27786e-30
-1.45092e-28
1.54787e-26
-1.54101e-24
1.41947e-22
-1.19681e-20
9.11332e-19
-6.16459e-17
3.63075e-15
-1.81798e-13
7.52693e-12
-2.49671e-10
6.40397e-09
-1.22008e-07
1.64293e-06
-1.44652e-05
6.74854e-05
-1.6837e-37
2.3432e-35
-3.05868e-33
3.78566e-31
-4.42236e-29
4.84729e-27
-4.94743e-25
4.6571e-23
-3.99443e-21
3.07521e-19
-2.08641e-17
1.22026e-15
-5.99463e-14
2.40071e-12
-7.57526e-11
1.81149e-09
-3.13398e-08
3.68743e-07
-2.65909e-06
8.82411e-06
-2.03676e-38
2.88705e-36
-3.83922e-34
4.84017e-32
-5.75771e-30
6.42272e-28
-6.66503e-26
6.36934e-24
-5.53432e-22
4.30385e-20
-2.9385e-18
1.72147e-16
-8.42382e-15
3.33847e-13
-1.03447e-11
2.406e-10
-3.99451e-09
4.41207e-08
-2.8598e-07
7.60825e-07
)
;

boundaryField
{
    x0
    {
        type            fixedValue;
        value           uniform 0;
    }
    x1
    {
        type            inletOutlet;
        inletValue      uniform 0.0357;
        value           nonuniform List<scalar> 10(0.0357 0.0357 0.0357 0.0357 0.0357 0.00194941 0.000400262 6.74854e-05 8.82411e-06 7.60825e-07);
    }
    y0
    {
        type            zeroGradient;
    }
    y1
    {
        type            zeroGradient;
    }
    z0
    {
        type            empty;
    }
    z1
    {
        type            empty;
    }
}


// ************************************************************************* //
