/*--------------------------------*- C++ -*----------------------------------*\
  =========                 |
  \\      /  F ield         | OpenFOAM: The Open Source CFD Toolbox
   \\    /   O peration     | Website:  https://openfoam.org
    \\  /    A nd           | Version:  7
     \\/     M anipulation  |
\*---------------------------------------------------------------------------*/
FoamFile
{
    version     2.0;
    format      ascii;
    class       surfaceScalarField;
    location    "540000";
    object      phi;
}
// * * * * * * * * * * * * * * * * * * * * * * * * * * * * * * * * * * * * * //

dimensions      [0 3 -1 0 0 0 0];

internalField   nonuniform List<scalar> 
370
(
6.56049e-06
3.9514e-08
6.51709e-06
4.3392e-08
6.46556e-06
5.15318e-08
6.40082e-06
6.47402e-08
6.31649e-06
8.43306e-08
6.20423e-06
1.12261e-07
6.05288e-06
1.51346e-07
5.84731e-06
2.05572e-07
5.56674e-06
2.80574e-07
5.18235e-06
3.84385e-07
4.65369e-06
5.28661e-07
3.92281e-06
7.30883e-07
2.90406e-06
1.01874e-06
1.46404e-06
1.44002e-06
-6.23663e-07
2.0877e-06
-3.78429e-06
3.16062e-06
-8.72616e-06
4.94188e-06
-1.53551e-05
6.62893e-06
-1.97821e-05
4.42705e-06
-1.50408e-06
6.56436e-06
7.515e-08
6.52523e-06
8.25223e-08
6.47877e-06
9.7995e-08
6.42041e-06
1.23098e-07
6.34442e-06
1.60321e-07
6.24331e-06
2.13368e-07
6.10711e-06
2.87552e-07
5.92231e-06
3.90366e-07
5.67055e-06
5.32339e-07
5.32663e-06
7.28305e-07
4.85591e-06
9.99376e-07
4.21067e-06
1.37613e-06
3.32535e-06
1.90407e-06
2.11197e-06
2.65341e-06
4.62833e-07
3.73684e-06
-1.71277e-06
5.33623e-06
-4.43305e-06
7.66215e-06
-8.01251e-06
1.02084e-05
-1.29218e-05
9.33629e-06
1.35621e-06
6.57174e-06
1.03414e-07
6.54071e-06
1.13552e-07
6.50387e-06
1.34828e-07
6.45764e-06
1.69337e-07
6.39747e-06
2.20487e-07
6.3175e-06
2.93339e-07
6.20992e-06
3.95126e-07
6.06429e-06
5.36002e-07
5.86652e-06
7.30112e-07
5.5977e-06
9.97122e-07
5.23267e-06
1.36441e-06
4.73861e-06
1.87019e-06
4.07468e-06
2.56799e-06
3.19543e-06
3.53266e-06
2.06515e-06
4.86712e-06
6.96768e-07
6.70461e-06
-8.18443e-07
9.17736e-06
-2.74231e-06
1.21323e-05
-6.80634e-06
1.34003e-05
5.84974e-06
6.58187e-06
1.21539e-07
6.56198e-06
1.33445e-07
6.53838e-06
1.58426e-07
6.50879e-06
1.98935e-07
6.47032e-06
2.58951e-07
6.41929e-06
3.44375e-07
6.3508e-06
4.63612e-07
6.2584e-06
6.28403e-07
6.13353e-06
8.54983e-07
5.96498e-06
1.16566e-06
5.73845e-06
1.59094e-06
5.43641e-06
2.17223e-06
5.03935e-06
2.96505e-06
4.5299e-06
4.04211e-06
3.90294e-06
5.49409e-06
3.18435e-06
7.42319e-06
2.44306e-06
9.91866e-06
1.60199e-06
1.29733e-05
-8.20866e-07
1.58232e-05
1.19162e-05
6.59378e-06
1.27758e-07
6.58696e-06
1.40263e-07
6.57889e-06
1.66497e-07
6.5688e-06
2.09025e-07
6.55575e-06
2.72008e-07
6.53852e-06
3.61599e-07
6.51559e-06
4.86544e-07
6.48498e-06
6.59015e-07
6.44421e-06
8.95756e-07
6.39026e-06
1.21961e-06
6.31974e-06
1.66147e-06
6.22923e-06
2.26273e-06
6.11641e-06
3.07787e-06
5.98189e-06
4.17663e-06
5.83204e-06
5.64393e-06
5.68101e-06
7.57422e-06
5.54534e-06
1.00543e-05
5.39513e-06
1.31235e-05
4.5299e-06
1.66884e-05
1.76854e-05
6.60629e-06
1.21472e-07
6.6132e-06
1.33353e-07
6.62142e-06
1.58273e-07
6.63178e-06
1.98662e-07
6.64534e-06
2.58455e-07
6.66347e-06
3.43468e-07
6.68806e-06
4.61949e-07
6.72172e-06
6.25358e-07
6.76806e-06
8.49419e-07
6.83213e-06
1.15553e-06
6.921e-06
1.5726e-06
7.04437e-06
2.13936e-06
7.21516e-06
2.90709e-06
7.44919e-06
3.9426e-06
7.76233e-06
5.33079e-06
8.16107e-06
7.17548e-06
8.61942e-06
9.59599e-06
9.03311e-06
1.27098e-05
9.05973e-06
1.66618e-05
2.05967e-05
6.61817e-06
1.03305e-07
6.63812e-06
1.13402e-07
6.66181e-06
1.34579e-07
6.69158e-06
1.68896e-07
6.73035e-06
2.19684e-07
6.78195e-06
2.91868e-07
6.85147e-06
3.92427e-07
6.94578e-06
5.31049e-07
7.07417e-06
7.2103e-07
7.2492e-06
9.80497e-07
7.48775e-06
1.33405e-06
7.8121e-06
1.81501e-06
8.25067e-06
2.46852e-06
8.83738e-06
3.35588e-06
9.60703e-06
4.56114e-06
1.05814e-05
6.2011e-06
1.17367e-05
8.44067e-06
1.29375e-05
1.15091e-05
1.38613e-05
1.57379e-05
2.11678e-05
6.62826e-06
7.50417e-08
6.65929e-06
8.23726e-08
6.69613e-06
9.77467e-08
6.74237e-06
1.22656e-07
6.80253e-06
1.59517e-07
6.88251e-06
2.11894e-07
6.99009e-06
2.84842e-07
7.13576e-06
3.8538e-07
7.33363e-06
5.23158e-07
7.60276e-06
7.11374e-07
7.96872e-06
9.68088e-07
8.4656e-06
1.31813e-06
9.13803e-06
1.79609e-06
1.00426e-05
2.45127e-06
1.1247e-05
3.35679e-06
1.28208e-05
4.62724e-06
1.48073e-05
6.45417e-06
1.71416e-05
9.1748e-06
1.94775e-05
1.34021e-05
2.00378e-05
6.63559e-06
3.94471e-08
6.67467e-06
4.32995e-08
6.72104e-06
5.13783e-08
6.77923e-06
6.44669e-08
6.85491e-06
8.38329e-08
6.95546e-06
1.11348e-07
7.09063e-06
1.49666e-07
7.27354e-06
2.02473e-07
7.52185e-06
2.74846e-07
7.85947e-06
3.73754e-07
8.31876e-06
5.08796e-07
8.94356e-06
6.9334e-07
9.79321e-06
9.46433e-07
1.09482e-05
1.2963e-06
1.25174e-05
1.78752e-06
1.46477e-05
2.49697e-06
1.75287e-05
3.57315e-06
2.13623e-05
5.34128e-06
2.61459e-05
8.6185e-06
1.57251e-05
6.63945e-06
6.68275e-06
6.73412e-06
6.79859e-06
6.88242e-06
6.99377e-06
7.14344e-06
7.34591e-06
7.62076e-06
7.99451e-06
8.50331e-06
9.19665e-06
1.01431e-05
1.14394e-05
1.32269e-05
1.57239e-05
1.9297e-05
2.46383e-05
3.32568e-05
)
;

boundaryField
{
    x0
    {
        type            calculated;
        value           nonuniform List<scalar> 10(-6.6e-06 -6.6e-06 -6.6e-06 -6.6e-06 -6.6e-06 -6.6e-06 -6.6e-06 -6.6e-06 -6.6e-06 -6.6e-06);
    }
    x1
    {
        type            calculated;
        value           nonuniform List<scalar> 10(-1.82781e-05 -1.5782e-05 -1.12999e-05 -6.88731e-06 -1.23934e-06 6.14843e-06 1.32903e-05 2.06075e-05 3.04586e-05 4.89819e-05);
    }
    y0
    {
        type            calculated;
        value           uniform 0;
    }
    y1
    {
        type            calculated;
        value           uniform 0;
    }
    z0
    {
        type            empty;
        value           nonuniform 0();
    }
    z1
    {
        type            empty;
        value           nonuniform 0();
    }
}


// ************************************************************************* //
