/*--------------------------------*- C++ -*----------------------------------*\
  =========                 |
  \\      /  F ield         | OpenFOAM: The Open Source CFD Toolbox
   \\    /   O peration     | Website:  https://openfoam.org
    \\  /    A nd           | Version:  7
     \\/     M anipulation  |
\*---------------------------------------------------------------------------*/
FoamFile
{
    version     2.0;
    format      ascii;
    class       volVectorField;
    location    "540000";
    object      Utheta;
}
// * * * * * * * * * * * * * * * * * * * * * * * * * * * * * * * * * * * * * //

dimensions      [0 1 -1 0 0 0 0];

internalField   nonuniform List<vector> 
200
(
(6.58024e-05 3.9514e-07 0)
(6.53879e-05 4.3392e-07 0)
(6.49133e-05 5.15318e-07 0)
(6.43319e-05 6.47402e-07 0)
(6.35866e-05 8.43306e-07 0)
(6.26036e-05 1.12261e-06 0)
(6.12856e-05 1.51346e-06 0)
(5.9501e-05 2.05572e-06 0)
(5.70703e-05 2.80574e-06 0)
(5.37455e-05 3.84385e-06 0)
(4.91802e-05 5.28661e-06 0)
(4.28825e-05 7.30883e-06 0)
(3.41344e-05 1.01874e-05 0)
(2.18405e-05 1.44002e-05 0)
(4.20189e-06 2.0877e-05 0)
(-2.20397e-05 3.16062e-05 0)
(-6.25522e-05 4.94188e-05 0)
(-0.000120406 6.62893e-05 0)
(-0.000175686 4.42705e-05 0)
(-0.000190301 -1.50408e-05 0)
(6.58218e-05 5.7332e-07 0)
(6.5448e-05 6.29572e-07 0)
(6.502e-05 7.47634e-07 0)
(6.44959e-05 9.39193e-07 0)
(6.38242e-05 1.22326e-06 0)
(6.29387e-05 1.62815e-06 0)
(6.17521e-05 2.19449e-06 0)
(6.01471e-05 2.97969e-06 0)
(5.79643e-05 4.06457e-06 0)
(5.49859e-05 5.56345e-06 0)
(5.09127e-05 7.64018e-06 0)
(4.53329e-05 1.05351e-05 0)
(3.76801e-05 1.46141e-05 0)
(2.71866e-05 2.04671e-05 0)
(1.2874e-05 2.91227e-05 0)
(-6.24969e-06 4.24843e-05 0)
(-3.07291e-05 6.30201e-05 0)
(-6.22278e-05 8.41866e-05 0)
(-0.000104671 6.88167e-05 0)
(-0.000143519 -7.39365e-07 0)
(6.58587e-05 8.92819e-07 0)
(6.55622e-05 9.80373e-07 0)
(6.52229e-05 1.16411e-06 0)
(6.48075e-05 1.46218e-06 0)
(6.42755e-05 1.90404e-06 0)
(6.35748e-05 2.53354e-06 0)
(6.26371e-05 3.41339e-06 0)
(6.13711e-05 4.63184e-06 0)
(5.9654e-05 6.31225e-06 0)
(5.73211e-05 8.62714e-06 0)
(5.41518e-05 1.18189e-05 0)
(4.98564e-05 1.62316e-05 0)
(4.40665e-05 2.23603e-05 0)
(3.63506e-05 3.09303e-05 0)
(2.63029e-05 4.30198e-05 0)
(1.38096e-05 6.02042e-05 0)
(-6.08378e-07 8.41976e-05 0)
(-1.78038e-05 0.000111703 0)
(-4.77432e-05 0.000113683 0)
(-9.0531e-05 3.60298e-05 0)
(6.59094e-05 1.12476e-06 0)
(6.57193e-05 1.23499e-06 0)
(6.55018e-05 1.46627e-06 0)
(6.52358e-05 1.84136e-06 0)
(6.48955e-05 2.39719e-06 0)
(6.4448e-05 3.18857e-06 0)
(6.38504e-05 4.29369e-06 0)
(6.3046e-05 5.82202e-06 0)
(6.19596e-05 7.92547e-06 0)
(6.04926e-05 1.08139e-05 0)
(5.85172e-05 1.47767e-05 0)
(5.58743e-05 2.02121e-05 0)
(5.23788e-05 2.76652e-05 0)
(4.78463e-05 3.78738e-05 0)
(4.21642e-05 5.18061e-05 0)
(3.54364e-05 7.0639e-05 0)
(2.8137e-05 9.54801e-05 0)
(2.02252e-05 0.000125528 0)
(3.90562e-06 0.000146117 0)
(-3.85409e-05 8.88297e-05 0)
(6.59689e-05 1.24649e-06 0)
(6.59037e-05 1.36854e-06 0)
(6.58293e-05 1.62462e-06 0)
(6.57385e-05 2.0398e-06 0)
(6.56227e-05 2.6548e-06 0)
(6.54713e-05 3.52987e-06 0)
(6.52706e-05 4.75078e-06 0)
(6.50028e-05 6.43709e-06 0)
(6.46459e-05 8.75369e-06 0)
(6.41723e-05 1.19263e-05 0)
(6.355e-05 1.62621e-05 0)
(6.27448e-05 2.21748e-05 0)
(6.17282e-05 3.02146e-05 0)
(6.04915e-05 4.10937e-05 0)
(5.90697e-05 5.56901e-05 0)
(5.75653e-05 7.4987e-05 0)
(5.61318e-05 9.98649e-05 0)
(5.47024e-05 0.000130484 0)
(4.96252e-05 0.000162558 0)
(1.64528e-05 0.000148008 0)
(6.60314e-05 1.24615e-06 0)
(6.60974e-05 1.36808e-06 0)
(6.61731e-05 1.62385e-06 0)
(6.6266e-05 2.03844e-06 0)
(6.63856e-05 2.65232e-06 0)
(6.6544e-05 3.52533e-06 0)
(6.67576e-05 4.74246e-06 0)
(6.70489e-05 6.42187e-06 0)
(6.74489e-05 8.72587e-06 0)
(6.80009e-05 1.18757e-05 0)
(6.87656e-05 1.61704e-05 0)
(6.98268e-05 2.20105e-05 0)
(7.12977e-05 2.99248e-05 0)
(7.33217e-05 4.05961e-05 0)
(7.60576e-05 5.48736e-05 0)
(7.9617e-05 7.37485e-05 0)
(8.39025e-05 9.82516e-05 0)
(8.82626e-05 0.000129167 0)
(9.04642e-05 0.000166751 0)
(7.60408e-05 0.000191411 0)
(6.60908e-05 1.12389e-06 0)
(6.62814e-05 1.23378e-06 0)
(6.64996e-05 1.46426e-06 0)
(6.67669e-05 1.83779e-06 0)
(6.71096e-05 2.3907e-06 0)
(6.75615e-05 3.17668e-06 0)
(6.81671e-05 4.27188e-06 0)
(6.89862e-05 5.78203e-06 0)
(7.00997e-05 7.85225e-06 0)
(7.16168e-05 1.06801e-05 0)
(7.36848e-05 1.45333e-05 0)
(7.64993e-05 1.97719e-05 0)
(8.03138e-05 2.6878e-05 0)
(8.54403e-05 3.64924e-05 0)
(9.22221e-05 4.94596e-05 0)
(0.000100942 6.68829e-05 0)
(0.000111591 9.01833e-05 0)
(0.000123371 0.000121095 0)
(0.000133994 0.000161999 0)
(0.000135758 0.000208822 0)
(6.61413e-05 8.91735e-07 0)
(6.64378e-05 9.78875e-07 0)
(6.67771e-05 1.16163e-06 0)
(6.71925e-05 1.45776e-06 0)
(6.77245e-05 1.896e-06 0)
(6.84252e-05 2.51881e-06 0)
(6.9363e-05 3.38634e-06 0)
(7.06293e-05 4.58215e-06 0)
(7.2347e-05 6.22094e-06 0)
(7.46819e-05 8.45935e-06 0)
(7.78574e-05 1.15107e-05 0)
(8.21716e-05 1.56657e-05 0)
(8.80182e-05 2.1323e-05 0)
(9.59034e-05 2.90357e-05 0)
(0.000106448 3.95897e-05 0)
(0.000120339 5.41417e-05 0)
(0.000138141 7.44742e-05 0)
(0.000159745 0.000103419 0)
(0.000183096 0.0001457 0)
(0.000200425 0.000206028 0)
(6.6178e-05 5.72444e-07 0)
(6.65513e-05 6.2836e-07 0)
(6.69785e-05 7.45625e-07 0)
(6.75013e-05 9.35617e-07 0)
(6.81707e-05 1.21675e-06 0)
(6.90518e-05 1.61621e-06 0)
(7.02304e-05 2.17254e-06 0)
(7.18208e-05 2.93927e-06 0)
(7.39769e-05 3.99002e-06 0)
(7.69066e-05 5.42564e-06 0)
(8.08912e-05 7.38442e-06 0)
(8.63116e-05 1.00574e-05 0)
(9.36838e-05 1.37126e-05 0)
(0.000103707 1.87378e-05 0)
(0.000117328 2.57215e-05 0)
(0.000135826 3.56211e-05 0)
(0.000160882 5.01366e-05 0)
(0.000194455 7.25804e-05 0)
(0.000237541 0.000110103 0)
(0.000283022 0.000178814 0)
(6.61972e-05 3.94471e-07 0)
(6.6611e-05 4.32995e-07 0)
(6.70844e-05 5.13783e-07 0)
(6.76636e-05 6.44669e-07 0)
(6.84051e-05 8.38329e-07 0)
(6.9381e-05 1.11348e-06 0)
(7.06861e-05 1.49666e-06 0)
(7.24467e-05 2.02473e-06 0)
(7.48333e-05 2.74846e-06 0)
(7.80763e-05 3.73754e-06 0)
(8.24891e-05 5.08796e-06 0)
(8.84998e-05 6.9334e-06 0)
(9.66986e-05 9.46433e-06 0)
(0.000107912 1.2963e-05 0)
(0.000123331 1.78752e-05 0)
(0.000144754 2.49697e-05 0)
(0.000175104 3.57315e-05 0)
(0.000219677 5.34128e-05 0)
(0.000289475 8.6185e-05 0)
(0.000411193 0.000157251 0)
)
;

boundaryField
{
    x0
    {
        type            fixedValue;
        value           uniform (6.6e-05 0 0);
    }
    x1
    {
        type            zeroGradient;
    }
    y0
    {
        type            zeroGradient;
    }
    y1
    {
        type            zeroGradient;
    }
    z0
    {
        type            empty;
    }
    z1
    {
        type            empty;
    }
}


// ************************************************************************* //
