/*--------------------------------*- C++ -*----------------------------------*\
  =========                 |
  \\      /  F ield         | OpenFOAM: The Open Source CFD Toolbox
   \\    /   O peration     | Website:  https://openfoam.org
    \\  /    A nd           | Version:  7
     \\/     M anipulation  |
\*---------------------------------------------------------------------------*/
FoamFile
{
    version     2.0;
    format      ascii;
    class       volScalarField;
    location    "180000";
    object      C;
}
// * * * * * * * * * * * * * * * * * * * * * * * * * * * * * * * * * * * * * //

dimensions      [0 0 0 0 0 0 0];

internalField   nonuniform List<scalar> 
200
(
-2.22842e-45
7.58525e-43
-2.4643e-40
7.68068e-38
-2.29718e-35
6.60331e-33
-1.83075e-30
4.92733e-28
-1.30192e-25
3.44264e-23
-9.42348e-21
2.84665e-18
-1.09335e-15
8.56911e-13
7.69625e-10
1.38661e-07
9.90128e-06
0.000315902
0.00440264
0.0244138
-7.70261e-47
2.63716e-44
-8.61588e-42
2.69929e-39
-8.10827e-37
2.3375e-34
-6.48357e-32
1.73873e-29
-4.54687e-27
1.17644e-24
-3.08817e-22
8.60782e-20
-2.79589e-17
1.35849e-14
1.06874e-10
2.75849e-08
2.54787e-06
0.000105329
0.00204257
0.0174766
3.60512e-47
-1.24808e-44
4.11934e-42
-1.30228e-39
3.94161e-37
-1.14261e-34
3.17751e-32
-8.50639e-30
2.20607e-27
-5.60303e-25
1.41962e-22
-3.70508e-20
1.05696e-17
-3.7353e-15
2.35736e-12
2.06344e-09
3.47359e-07
2.36419e-05
0.000761057
0.0114308
9.12301e-49
-2.84798e-46
8.28703e-44
-2.23979e-41
5.53629e-39
-1.21572e-36
2.21381e-34
-2.57296e-32
-2.57036e-30
3.09849e-27
-1.40535e-24
5.1547e-22
-1.77929e-19
6.41513e-17
-2.804e-14
2.1699e-11
1.30656e-08
2.11138e-06
0.000157308
0.00597634
-1.86979e-48
6.61245e-46
-2.21644e-43
7.06455e-41
-2.13585e-38
6.10945e-36
-1.64912e-33
4.19005e-31
-9.99738e-29
2.23579e-26
-4.6812e-24
9.17576e-22
-1.68559e-19
2.90476e-17
-4.66965e-15
6.6539e-13
-2.99697e-11
5.83942e-08
5.02479e-06
0.000794592
-1.76286e-47
6.5263e-45
-2.29142e-42
7.65172e-40
-2.42295e-37
7.25055e-35
-2.04213e-32
5.38779e-30
-1.32395e-27
3.00942e-25
-6.2749e-23
1.18792e-20
-2.01622e-18
3.0207e-16
-3.91969e-14
4.30628e-12
-3.90214e-10
2.84598e-08
-1.49397e-06
8.0486e-05
-1.26346e-47
4.86438e-45
-1.77497e-42
6.15229e-40
-2.01839e-37
6.23974e-35
-1.80772e-32
4.87459e-30
-1.21314e-27
2.75723e-25
-5.64892e-23
1.02664e-20
-1.62319e-18
2.18139e-16
-2.42533e-14
2.16364e-12
-1.49668e-10
7.71475e-09
-2.79531e-07
6.32461e-06
-2.82209e-48
1.12549e-45
-4.25209e-43
1.5245e-40
-5.16575e-38
1.64563e-35
-4.89587e-33
1.3489e-30
-3.40571e-28
7.77705e-26
-1.58042e-23
2.80249e-21
-4.23584e-19
5.30971e-17
-5.34998e-15
4.18269e-13
-2.43696e-11
1.00636e-09
-2.72255e-08
3.93135e-07
-2.60969e-49
1.07266e-46
-4.17631e-44
1.54247e-41
-5.3801e-39
1.76194e-36
-5.37759e-34
1.51523e-31
-3.89502e-29
9.00072e-27
-1.83624e-24
3.23606e-22
-4.8017e-20
5.82347e-18
-5.58089e-16
4.06641e-14
-2.1522e-12
7.79371e-11
-1.75184e-09
1.90879e-08
-1.04541e-50
4.38132e-48
-1.73965e-45
6.55277e-43
-2.33068e-40
7.78034e-38
-2.41872e-35
6.93311e-33
-1.80969e-30
4.23528e-28
-8.72054e-26
1.54435e-23
-2.29061e-21
2.75985e-19
-2.60878e-17
1.85882e-15
-9.51195e-14
3.27285e-12
-6.7693e-11
6.31038e-10
)
;

boundaryField
{
    x0
    {
        type            fixedValue;
        value           uniform 0;
    }
    x1
    {
        type            inletOutlet;
        inletValue      uniform 0.0357;
        value           nonuniform List<scalar> 10(0.0357 0.0357 0.0357 0.0357 0.000794592 8.0486e-05 6.32461e-06 3.93135e-07 1.90879e-08 6.31038e-10);
    }
    y0
    {
        type            zeroGradient;
    }
    y1
    {
        type            zeroGradient;
    }
    z0
    {
        type            empty;
    }
    z1
    {
        type            empty;
    }
}


// ************************************************************************* //
