/*--------------------------------*- C++ -*----------------------------------*\
  =========                 |
  \\      /  F ield         | OpenFOAM: The Open Source CFD Toolbox
   \\    /   O peration     | Website:  https://openfoam.org
    \\  /    A nd           | Version:  7
     \\/     M anipulation  |
\*---------------------------------------------------------------------------*/
FoamFile
{
    version     2.0;
    format      ascii;
    class       volScalarField;
    location    "180000";
    object      C_0;
}
// * * * * * * * * * * * * * * * * * * * * * * * * * * * * * * * * * * * * * //

dimensions      [0 0 0 0 0 0 0];

internalField   nonuniform List<scalar> 
200
(
-2.21371e-45
7.53764e-43
-2.44964e-40
7.63753e-38
-2.28503e-35
6.57055e-33
-1.82227e-30
4.90613e-28
-1.29675e-25
3.43009e-23
-9.39219e-21
2.83812e-18
-1.09043e-15
8.54875e-13
7.68086e-10
1.38432e-07
9.88842e-06
0.000315605
0.00440014
0.0244088
-7.64911e-47
2.61971e-44
-8.56166e-42
2.68319e-39
-8.06256e-37
2.32508e-34
-6.45126e-32
1.73063e-29
-4.52717e-27
1.17173e-24
-3.07679e-22
8.57884e-20
-2.78735e-17
1.35475e-14
1.06655e-10
2.75381e-08
2.54444e-06
0.000105225
0.00204127
0.0174719
3.58097e-47
-1.24012e-44
4.0944e-42
-1.29482e-39
3.9203e-37
-1.13681e-34
3.16239e-32
-8.46865e-30
2.19699e-27
-5.58177e-25
1.41469e-22
-3.69338e-20
1.05395e-17
-3.72582e-15
2.35208e-12
2.05973e-09
3.46865e-07
2.36167e-05
0.000760518
0.0114271
9.06382e-49
-2.83052e-46
8.23926e-44
-2.22774e-41
5.50879e-39
-1.21026e-36
2.2053e-34
-2.56697e-32
-2.54578e-30
3.08323e-27
-1.3996e-24
5.13627e-22
-1.77366e-19
6.39719e-17
-2.79708e-14
2.16518e-11
1.30439e-08
2.1088e-06
0.000157178
0.00597378
-1.85671e-48
6.56838e-46
-2.20241e-43
7.02217e-41
-2.12375e-38
6.0769e-36
-1.64089e-33
4.17056e-31
-9.9543e-29
2.22692e-26
-4.66425e-24
9.14569e-22
-1.68064e-19
2.89722e-17
-4.65912e-15
6.64137e-13
-2.99635e-11
5.83059e-08
5.01868e-06
0.000794033
-1.75006e-47
6.48104e-45
-2.27629e-42
7.60368e-40
-2.40854e-37
7.20981e-35
-2.03133e-32
5.36106e-30
-1.31782e-27
2.99648e-25
-6.24998e-23
1.18359e-20
-2.00954e-18
3.0117e-16
-3.90932e-14
4.29631e-12
-3.8944e-10
2.84128e-08
-1.49203e-06
8.04048e-05
-1.25388e-47
4.82908e-45
-1.76267e-42
6.11168e-40
-2.00573e-37
6.20264e-35
-1.79757e-32
4.84882e-30
-1.20712e-27
2.74447e-25
-5.62464e-23
1.02257e-20
-1.61729e-18
2.17418e-16
-2.41812e-14
2.15793e-12
-1.49322e-10
7.6995e-09
-2.79071e-07
6.31625e-06
-2.79976e-48
1.11696e-45
-4.22123e-43
1.51394e-40
-5.13166e-38
1.63531e-35
-4.86678e-33
1.34133e-30
-3.38772e-28
7.73853e-26
-1.57312e-23
2.79046e-21
-4.21906e-19
5.29044e-17
-5.33233e-15
4.17027e-13
-2.43054e-11
1.00404e-09
-2.71719e-08
3.92492e-07
-2.5882e-49
1.06418e-46
-4.14464e-44
1.53128e-41
-5.34285e-39
1.75032e-36
-5.34389e-34
1.50623e-31
-3.87318e-29
8.95321e-27
-1.82715e-24
3.22112e-22
-4.78111e-20
5.80044e-18
-5.56066e-16
4.05302e-14
-2.14583e-12
7.77324e-11
-1.74783e-09
1.90507e-08
-1.03645e-50
4.34522e-48
-1.72589e-45
6.50308e-43
-2.31377e-40
7.72646e-38
-2.40276e-35
6.88966e-33
-1.79895e-30
4.21153e-28
-8.67452e-26
1.53672e-23
-2.28005e-21
2.74803e-19
-2.59848e-17
1.8521e-15
-9.48073e-14
3.2632e-12
-6.75164e-11
6.29614e-10
)
;

boundaryField
{
    x0
    {
        type            fixedValue;
        value           uniform 0;
    }
    x1
    {
        type            inletOutlet;
        inletValue      uniform 0.0357;
        value           nonuniform List<scalar> 10(0.0357 0.0357 0.0357 0.0357 0.000794033 8.04048e-05 6.31625e-06 3.92492e-07 1.90507e-08 6.29614e-10);
    }
    y0
    {
        type            zeroGradient;
    }
    y1
    {
        type            zeroGradient;
    }
    z0
    {
        type            empty;
    }
    z1
    {
        type            empty;
    }
}


// ************************************************************************* //
