/*--------------------------------*- C++ -*----------------------------------*\
  =========                 |
  \\      /  F ield         | OpenFOAM: The Open Source CFD Toolbox
   \\    /   O peration     | Website:  https://openfoam.org
    \\  /    A nd           | Version:  7
     \\/     M anipulation  |
\*---------------------------------------------------------------------------*/
FoamFile
{
    version     2.0;
    format      ascii;
    class       surfaceScalarField;
    location    "180000";
    object      phi;
}
// * * * * * * * * * * * * * * * * * * * * * * * * * * * * * * * * * * * * * //

dimensions      [0 3 -1 0 0 0 0];

internalField   nonuniform List<scalar> 
370
(
6.56139e-06
3.86143e-08
6.51899e-06
4.23968e-08
6.46866e-06
5.03332e-08
6.40545e-06
6.32033e-08
6.32318e-06
8.22732e-08
6.21376e-06
1.09422e-07
6.06642e-06
1.47333e-07
5.86665e-06
1.99774e-07
5.59466e-06
2.71994e-07
5.22333e-06
3.71324e-07
4.71526e-06
5.0807e-07
4.0183e-06
6.96965e-07
3.05862e-06
9.59682e-07
1.72892e-06
1.3297e-06
-1.33983e-07
1.8629e-06
-2.79757e-06
2.66359e-06
-6.75042e-06
3.95285e-06
-1.29107e-05
6.1603e-06
-2.18052e-05
8.89447e-06
5.64781e-06
6.56517e-06
7.3446e-08
6.52693e-06
8.06396e-08
6.48153e-06
9.57327e-08
6.42452e-06
1.20207e-07
6.35033e-06
1.56467e-07
6.25167e-06
2.08081e-07
6.11886e-06
2.80138e-07
5.93887e-06
3.79767e-07
5.69399e-06
5.16878e-07
5.36008e-06
7.0523e-07
4.90416e-06
9.63992e-07
4.28101e-06
1.32011e-06
3.42863e-06
1.81206e-06
2.26211e-06
2.49622e-06
6.66762e-07
3.45825e-06
-1.50401e-06
4.83436e-06
-4.40003e-06
6.84886e-06
-8.06933e-06
9.8296e-06
-1.2648e-05
1.34732e-05
1.10849e-05
6.57236e-06
1.01084e-07
6.54202e-06
1.10983e-07
6.506e-06
1.31751e-07
6.46078e-06
1.65425e-07
6.40194e-06
2.15308e-07
6.32373e-06
2.86298e-07
6.21849e-06
3.85371e-07
6.07598e-06
5.22278e-07
5.88234e-06
7.10522e-07
5.61884e-06
9.68727e-07
5.26027e-06
1.32256e-06
4.77297e-06
1.80741e-06
4.1128e-06
2.47223e-06
3.22414e-06
3.38488e-06
2.04288e-06
4.63951e-06
5.11495e-07
6.36575e-06
-1.37521e-06
8.73557e-06
-3.4902e-06
1.19446e-05
-5.90229e-06
1.58853e-05
1.56868e-05
6.58226e-06
1.18824e-07
6.56279e-06
1.30457e-07
6.53967e-06
1.54863e-07
6.51067e-06
1.94433e-07
6.47293e-06
2.53042e-07
6.4228e-06
3.36431e-07
6.3554e-06
4.5277e-07
6.26423e-06
6.13452e-07
6.14054e-06
8.34203e-07
5.97267e-06
1.1366e-06
5.74513e-06
1.5501e-06
5.43779e-06
2.11476e-06
5.02544e-06
2.88458e-06
4.47877e-06
3.93154e-06
3.76912e-06
5.34917e-06
2.88144e-06
7.25342e-06
1.84269e-06
9.77433e-06
7.62697e-07
1.30246e-05
-3.31674e-07
1.69797e-05
1.94334e-05
6.59389e-06
1.2493e-07
6.58719e-06
1.37158e-07
6.57924e-06
1.62812e-07
6.56927e-06
2.04401e-07
6.55632e-06
2.65995e-07
6.53914e-06
3.53615e-07
6.51608e-06
4.75826e-07
6.48498e-06
6.44556e-07
6.44294e-06
8.76241e-07
6.38618e-06
1.19336e-06
6.30978e-06
1.6265e-06
6.20761e-06
2.21693e-06
6.07239e-06
3.01981e-06
5.8964e-06
4.10753e-06
5.67337e-06
5.57219e-06
5.40235e-06
7.52444e-06
5.09369e-06
1.0083e-05
4.77379e-06
1.33445e-05
4.43408e-06
1.73194e-05
2.15701e-05
6.60612e-06
1.18807e-07
6.61285e-06
1.30434e-07
6.62083e-06
1.54826e-07
6.63087e-06
1.94366e-07
6.64394e-06
2.5292e-07
6.66135e-06
3.36209e-07
6.68481e-06
4.52364e-07
6.71666e-06
6.12707e-07
6.76006e-06
8.3284e-07
6.81931e-06
1.13411e-06
6.90021e-06
1.54559e-06
7.0105e-06
2.10664e-06
7.16012e-06
2.87019e-06
7.36106e-06
3.90658e-06
7.62563e-06
5.30763e-06
7.9609e-06
7.18917e-06
8.3552e-06
9.68869e-06
8.74991e-06
1.29498e-05
8.98963e-06
1.70797e-05
2.20346e-05
6.61775e-06
1.01058e-07
6.63724e-06
1.10946e-07
6.66037e-06
1.3169e-07
6.68942e-06
1.65317e-07
6.72723e-06
2.15112e-07
6.7775e-06
2.85938e-07
6.84515e-06
3.84711e-07
6.93679e-06
5.21067e-07
7.06133e-06
7.08301e-07
7.23079e-06
9.64658e-07
7.46126e-06
1.31512e-06
7.77404e-06
1.79386e-06
8.19651e-06
2.44771e-06
8.76211e-06
3.34099e-06
9.50717e-06
4.56257e-06
1.04604e-05
6.23592e-06
1.16163e-05
8.53284e-06
1.28792e-05
1.16868e-05
1.39755e-05
1.59833e-05
2.16346e-05
6.62764e-06
7.34195e-08
6.65798e-06
8.0603e-08
6.694e-06
9.5672e-08
6.73922e-06
1.20099e-07
6.79806e-06
1.56271e-07
6.87628e-06
2.07721e-07
6.98151e-06
2.79476e-07
7.12403e-06
3.78549e-07
7.31769e-06
5.14637e-07
7.58125e-06
7.01099e-07
7.94001e-06
9.56364e-07
8.42789e-06
1.30599e-06
9.08979e-06
1.7858e-06
9.98368e-06
2.44711e-06
1.11805e-05
3.36572e-06
1.27573e-05
4.6591e-06
1.47703e-05
6.51991e-06
1.71756e-05
9.28157e-06
1.96292e-05
1.35297e-05
2.01821e-05
6.63482e-06
3.85979e-08
6.67305e-06
4.23741e-08
6.71843e-06
5.02957e-08
6.77539e-06
6.31366e-08
6.84951e-06
8.21516e-08
6.94803e-06
1.09199e-07
7.08058e-06
1.46923e-07
7.26012e-06
1.99018e-07
7.50415e-06
2.70598e-07
7.83652e-06
3.68738e-07
8.28963e-06
5.03253e-07
8.9077e-06
6.87911e-07
9.7511e-06
9.42405e-07
1.09023e-05
1.29591e-06
1.24739e-05
1.79412e-06
1.46182e-05
2.51484e-06
1.75319e-05
3.60614e-06
2.14237e-05
5.38982e-06
2.62818e-05
8.67157e-06
1.57668e-05
6.6386e-06
6.68097e-06
6.73127e-06
6.7944e-06
6.87656e-06
6.98575e-06
7.13268e-06
7.3317e-06
7.60229e-06
7.97103e-06
8.47428e-06
9.1622e-06
1.01046e-05
1.14005e-05
1.31946e-05
1.57095e-05
1.93156e-05
2.47054e-05
3.3377e-05
)
;

boundaryField
{
    x0
    {
        type            calculated;
        value           nonuniform List<scalar> 10(-6.6e-06 -6.6e-06 -6.6e-06 -6.6e-06 -6.6e-06 -6.6e-06 -6.6e-06 -6.6e-06 -6.6e-06 -6.6e-06);
    }
    x1
    {
        type            calculated;
        value           nonuniform List<scalar> 10(-2.7453e-05 -1.80851e-05 -1.05042e-05 -4.07831e-06 2.29741e-06 8.52518e-06 1.43755e-05 2.10817e-05 3.06972e-05 4.91438e-05);
    }
    y0
    {
        type            calculated;
        value           uniform 0;
    }
    y1
    {
        type            calculated;
        value           uniform 0;
    }
    z0
    {
        type            empty;
        value           nonuniform 0();
    }
    z1
    {
        type            empty;
        value           nonuniform 0();
    }
}


// ************************************************************************* //
