/*--------------------------------*- C++ -*----------------------------------*\
  =========                 |
  \\      /  F ield         | OpenFOAM: The Open Source CFD Toolbox
   \\    /   O peration     | Website:  https://openfoam.org
    \\  /    A nd           | Version:  7
     \\/     M anipulation  |
\*---------------------------------------------------------------------------*/
FoamFile
{
    version     2.0;
    format      ascii;
    class       volVectorField;
    location    "180000";
    object      Utheta;
}
// * * * * * * * * * * * * * * * * * * * * * * * * * * * * * * * * * * * * * //

dimensions      [0 1 -1 0 0 0 0];

internalField   nonuniform List<vector> 
200
(
(6.58069e-05 3.86143e-07 0)
(6.54019e-05 4.23968e-07 0)
(6.49382e-05 5.03332e-07 0)
(6.43705e-05 6.32033e-07 0)
(6.36432e-05 8.22732e-07 0)
(6.26847e-05 1.09422e-06 0)
(6.14009e-05 1.47333e-06 0)
(5.96654e-05 1.99774e-06 0)
(5.73065e-05 2.71994e-06 0)
(5.40899e-05 3.71324e-06 0)
(4.9693e-05 5.0807e-06 0)
(4.36678e-05 6.96965e-06 0)
(3.53846e-05 9.59682e-06 0)
(2.39377e-05 1.3297e-05 0)
(7.97466e-06 1.8629e-05 0)
(-1.46578e-05 2.66359e-05 0)
(-4.77399e-05 3.95285e-05 0)
(-9.83056e-05 6.1603e-05 0)
(-0.00017358 8.89447e-05 0)
(-0.000246291 5.64781e-05 0)
(6.58258e-05 5.60301e-07 0)
(6.54605e-05 6.15182e-07 0)
(6.50423e-05 7.30329e-07 0)
(6.45302e-05 9.17052e-07 0)
(6.38743e-05 1.1937e-06 0)
(6.301e-05 1.58752e-06 0)
(6.18527e-05 2.13736e-06 0)
(6.02887e-05 2.8977e-06 0)
(5.81643e-05 3.94436e-06 0)
(5.52703e-05 5.38277e-06 0)
(5.13212e-05 7.36031e-06 0)
(4.59259e-05 1.00854e-05 0)
(3.85482e-05 1.38587e-05 0)
(2.84537e-05 1.91296e-05 0)
(1.46444e-05 2.66057e-05 0)
(-4.18625e-06 3.74897e-05 0)
(-2.95202e-05 5.40086e-05 0)
(-6.23468e-05 7.99495e-05 0)
(-0.000103587 0.000111838 0)
(-0.000153666 8.36636e-05 0)
(6.58618e-05 8.72651e-07 0)
(6.55719e-05 9.58113e-07 0)
(6.52401e-05 1.13742e-06 0)
(6.48339e-05 1.42816e-06 0)
(6.43136e-05 1.85888e-06 0)
(6.36283e-05 2.4719e-06 0)
(6.27111e-05 3.32755e-06 0)
(6.14724e-05 4.51022e-06 0)
(5.97916e-05 6.137e-06 0)
(5.75059e-05 8.36979e-06 0)
(5.43956e-05 1.14328e-05 0)
(5.01662e-05 1.56376e-05 0)
(4.44288e-05 2.14215e-05 0)
(3.66847e-05 2.94055e-05 0)
(2.63351e-05 4.04888e-05 0)
(1.27719e-05 5.60005e-05 0)
(-4.31858e-06 7.79222e-05 0)
(-2.4327e-05 0.000108871 0)
(-4.69625e-05 0.000146792 0)
(-8.20324e-05 0.000133859 0)
(6.59113e-05 1.09954e-06 0)
(6.57252e-05 1.2072e-06 0)
(6.55123e-05 1.43307e-06 0)
(6.52517e-05 1.79929e-06 0)
(6.4918e-05 2.34175e-06 0)
(6.44787e-05 3.11365e-06 0)
(6.3891e-05 4.19071e-06 0)
(6.30981e-05 5.67865e-06 0)
(6.20238e-05 7.72362e-06 0)
(6.05661e-05 1.05266e-05 0)
(5.8589e-05 1.43633e-05 0)
(5.59146e-05 1.96109e-05 0)
(5.23161e-05 2.67841e-05 0)
(4.75211e-05 3.65821e-05 0)
(4.12395e-05 4.99434e-05 0)
(3.32528e-05 6.80958e-05 0)
(2.36206e-05 9.25495e-05 0)
(1.30269e-05 0.000124846 0)
(2.15511e-06 0.000164325 0)
(-2.20499e-05 0.000175601 0)
(6.59695e-05 1.21877e-06 0)
(6.59054e-05 1.33808e-06 0)
(6.58322e-05 1.58838e-06 0)
(6.57426e-05 1.99417e-06 0)
(6.5628e-05 2.59518e-06 0)
(6.54773e-05 3.45023e-06 0)
(6.52761e-05 4.64298e-06 0)
(6.50053e-05 6.29004e-06 0)
(6.46396e-05 8.55222e-06 0)
(6.41456e-05 1.16498e-05 0)
(6.34798e-05 1.5883e-05 0)
(6.2587e-05 2.16584e-05 0)
(6.14e-05 2.95219e-05 0)
(5.9844e-05 4.01953e-05 0)
(5.78489e-05 5.46068e-05 0)
(5.53786e-05 7.38893e-05 0)
(5.24802e-05 9.92866e-05 0)
(4.93374e-05 0.000131845 0)
(4.60394e-05 0.000171495 0)
(3.36575e-05 0.000205018 0)
(6.60306e-05 1.21869e-06 0)
(6.60948e-05 1.33796e-06 0)
(6.61684e-05 1.58819e-06 0)
(6.62585e-05 1.99384e-06 0)
(6.63741e-05 2.59458e-06 0)
(6.65265e-05 3.44912e-06 0)
(6.67308e-05 4.64095e-06 0)
(6.70074e-05 6.28632e-06 0)
(6.73836e-05 8.5454e-06 0)
(6.78969e-05 1.16374e-05 0)
(6.85976e-05 1.58604e-05 0)
(6.95535e-05 2.16178e-05 0)
(7.08531e-05 2.945e-05 0)
(7.26059e-05 4.00706e-05 0)
(7.49334e-05 5.43991e-05 0)
(7.79326e-05 7.35681e-05 0)
(8.15805e-05 9.88584e-05 0)
(8.55255e-05 0.000131471 0)
(8.86977e-05 0.000171995 0)
(8.7574e-05 0.000218023 0)
(6.60887e-05 1.09933e-06 0)
(6.62749e-05 1.2069e-06 0)
(6.64881e-05 1.43258e-06 0)
(6.6749e-05 1.79841e-06 0)
(6.70833e-05 2.34016e-06 0)
(6.75237e-05 3.11074e-06 0)
(6.81133e-05 4.18537e-06 0)
(6.89097e-05 5.66887e-06 0)
(6.99906e-05 7.70571e-06 0)
(7.14606e-05 1.04939e-05 0)
(7.34603e-05 1.43036e-05 0)
(7.61765e-05 1.95025e-05 0)
(7.98528e-05 2.65895e-05 0)
(8.47931e-05 3.62379e-05 0)
(9.13464e-05 4.9351e-05 0)
(9.9838e-05 6.71255e-05 0)
(0.000110383 9.11077e-05 0)
(0.000122477 0.000123183 0)
(0.000134273 0.000165315 0)
(0.000141755 0.000218346 0)
(6.61382e-05 8.72386e-07 0)
(6.64281e-05 9.57747e-07 0)
(6.67599e-05 1.13681e-06 0)
(6.71661e-05 1.42708e-06 0)
(6.76864e-05 1.85691e-06 0)
(6.83717e-05 2.4683e-06 0)
(6.92889e-05 3.32094e-06 0)
(7.05277e-05 4.49808e-06 0)
(7.22086e-05 6.11469e-06 0)
(7.44947e-05 8.32879e-06 0)
(7.76063e-05 1.13574e-05 0)
(8.18395e-05 1.54992e-05 0)
(8.75884e-05 2.11676e-05 0)
(9.53674e-05 2.89405e-05 0)
(0.000105821 3.96414e-05 0)
(0.000119689 5.44751e-05 0)
(0.000137638 7.52638e-05 0)
(0.000159729 0.000104842 0)
(0.000184024 0.000147565 0)
(0.000203554 0.000209084 0)
(6.61741e-05 5.60087e-07 0)
(6.65394e-05 6.14886e-07 0)
(6.69574e-05 7.29838e-07 0)
(6.74691e-05 9.16178e-07 0)
(6.81245e-05 1.19211e-06 0)
(6.89877e-05 1.5846e-06 0)
(7.01431e-05 2.132e-06 0)
(7.17035e-05 2.88784e-06 0)
(7.38213e-05 3.92617e-06 0)
(7.67034e-05 5.34919e-06 0)
(8.06307e-05 7.29809e-06 0)
(8.59866e-05 9.96948e-06 0)
(9.3294e-05 1.3641e-05 0)
(0.000103267 1.87151e-05 0)
(0.000116881 2.57992e-05 0)
(0.00013546 3.58697e-05 0)
(0.00016075 5.06303e-05 0)
(0.000194778 7.33569e-05 0)
(0.000238527 0.000111006 0)
(0.000284895 0.000179744 0)
(6.6193e-05 3.85979e-07 0)
(6.65978e-05 4.23741e-07 0)
(6.70612e-05 5.02957e-07 0)
(6.76284e-05 6.31366e-07 0)
(6.83548e-05 8.21516e-07 0)
(6.93116e-05 1.09199e-06 0)
(7.05922e-05 1.46923e-06 0)
(7.23219e-05 1.99018e-06 0)
(7.46699e-05 2.70598e-06 0)
(7.78666e-05 3.68738e-06 0)
(8.22266e-05 5.03253e-06 0)
(8.81824e-05 6.87911e-06 0)
(9.6334e-05 9.42405e-06 0)
(0.000107526 1.29591e-05 0)
(0.000122976 1.79412e-05 0)
(0.00014452 2.51484e-05 0)
(0.000175125 3.60614e-05 0)
(0.000220105 5.38982e-05 0)
(0.000290412 8.67157e-05 0)
(0.000412604 0.000157668 0)
)
;

boundaryField
{
    x0
    {
        type            fixedValue;
        value           uniform (6.6e-05 0 0);
    }
    x1
    {
        type            zeroGradient;
    }
    y0
    {
        type            zeroGradient;
    }
    y1
    {
        type            zeroGradient;
    }
    z0
    {
        type            empty;
    }
    z1
    {
        type            empty;
    }
}


// ************************************************************************* //
